384
# CELL(abcABC):   15.623619168026092    15.623619168026092   15.623619168026092    90.00000    90.00000    90.00000  Traj: positions{angstrom} cell{angstrom}  Step:  0  Bead:  0
O 4.57679 5.50123 13.6944
O 14.8875 3.66367 14.1079
O 8.20115 10.8513 3.91518
O 1.55859 4.11103 4.68534
O 14.0046 11.0534 10.4291
O 10.1562 -0.0244194 -0.0179537
O 13.1461 9.78511 5.92123
O 3.48566 13.6848 7.87681
O 3.32305 6.30373 3.20589
O 5.30735 8.37688 2.36991
O 13.7801 6.32188 1.70807
O 0.692367 10.1945 14.1186
O 15.0627 5.43363 4.6639
O 9.98456 5.97612 7.92121
O 12.4056 7.19481 3.96576
O 9.83562 2.64919 6.79506
O 4.60459 4.17249 11.4106
O 7.55062 10.3381 11.1669
O 8.27543 1.89543 14.4455
O 5.83253 14.0038 0.549654
O -0.277952 13.5963 10.2649
O 12.6457 2.09652 6.28487
O 10.7129 7.40871 14.2399
O 2.2119 7.88472 6.40809
O 10.4542 9.69036 5.97773
O -0.282536 8.22967 4.81222
O 1.6652 11.2607 4.20606
O 6.17365 -0.094545 10.725
O 12.1932 8.4542 0.381712
O 2.29814 6.67565 12.652
O 3.74006 5.65533 5.77839
O 7.64075 12.3667 7.75101
O 2.57949 3.81144 2.08856
O 3.31976 13.3432 0.0677147
O -0.0967938 5.37115 7.46928
O 11.1426 14.5448 7.59235
O 1.26174 14.8074 2.57217
O 6.41618 0.335516 13.3898
O 0.207637 9.92258 2.18818
O 12.6731 13.1901 12.8323
O 1.29363 11.9761 7.9846
O 13.2286 14.8362 0.439531
O -0.123887 15.1905 5.01064
O 8.80795 12.7708 12.0788
O 12.4172 6.75949 6.79319
O 9.49869 10.6014 8.40823
O 10.544 10.9934 13.3575
O 8.99001 12.8372 5.44675
O 4.04829 1.51716 14.6149
O 6.69928 13.1999 13.7041
O 4.43379 6.10378 9.26553
O 11.4216 -0.0969869 13.0672
O 8.10878 14.4288 3.40524
O 4.3962 2.37166 3.28729
O 12.1316 11.4523 8.45349
O 8.7458 10.8517 -0.213292
O 1.53862 1.7361 8.48855
O 8.69585 5.89847 11.616
O 1.22107 9.19196 8.49846
O 10.635 10.5731 3.14594
O 11.4957 4.51089 15.2148
O 10.9209 6.7156 10.446
O 4.94638 10.4223 10.3546
O 7.94749 8.55464 1.09697
O 14.5919 7.80968 8.4877
O 5.26248 14.7619 3.62401
O 5.62202 2.26942 6.97039
O 1.29568 -0.0251437 10.348
O 11.6689 12.7598 1.5126
O 8.10674 4.34492 9.29769
O 15.2574 12.5827 5.71394
O 5.13758 11.4238 7.95676
O 0.807368 7.59384 14.5622
O 1.07308 4.35508 11.6836
O -0.103901 0.899318 12.6958
O 12.4336 12.7126 5.99741
O 6.5124 0.898083 1.44852
O 5.22926 7.74021 7.34722
O 4.69818 3.85809 0.25821
O 14.6318 1.53081 0.260033
O 8.7843 1.26425 2.88569
O 10.1715 2.86217 10.2074
O 1.97586 4.56417 8.94346
O 12.6683 15.2799 4.82665
O 10.1623 4.44247 4.67024
O 8.26116 6.29332 15.2182
O 2.75694 2.33071 12.3211
O 10.1168 15.0402 10.6766
O 0.0214213 11.8389 0.424274
O 9.92368 3.73613 12.9889
O 7.93039 3.8304 3.09944
O 3.45334 12.7245 2.72154
O 13.7442 3.34545 8.32257
O 1.06378 7.50528 1.70711
O 13.5608 9.51663 12.896
O 6.16563 2.34739 9.6158
O 6.00658 4.12469 4.96415
O 13.0409 2.11594 12.6389
O 9.44842 7.22402 5.61094
O 3.08802 8.31472 10.412
O 4.27645 12.564 12.0172
O 0.247817 12.7339 12.6695
O 6.92237 8.32243 4.80264
O 10.2096 9.4039 11.0142
O 8.10819 14.6608 9.11245
O 0.724807 14.5893 14.8093
O 7.38606 3.87893 0.612739
O 13.59 6.17467 11.3541
O 6.57455 9.82429 14.0409
O 6.72525 7.05567 13.1783
O 3.66994 10.3273 5.96103
O 1.66543 1.60839 5.77048
O 9.05834 13.0173 1.11863
O 4.11235 0.213829 6.02437
O 10.3679 8.11545 2.36753
O 3.8208 14.5044 10.4834
O 6.27696 11.8524 2.07137
O 3.1417 11.1769 14.1451
O 12.971 3.21476 1.56998
O 12.4061 13.5738 10.1924
O 14.0948 6.56232 13.8874
O 11.4172 0.689063 2.37021
O 1.65778 1.52802 1.12949
O 7.74882 0.714644 6.86752
O 13.0368 10.8806 0.0461404
O 14.1536 3.59273 10.8941
O 12.9937 3.74289 4.44237
O 4.93288 10.2326 0.481908
H 4.52916 4.87676 12.9369
H 4.69703 5.06241 14.547
H 14.6886 4.58995 14.3163
H 0.0945933 3.63697 13.6264
H 7.74221 10.0755 4.24889
H 8.99342 10.7228 3.34745
H 0.788771 4.72927 4.53377
H 1.81069 3.95163 3.77685
H 14.4008 11.9252 10.4575
H 13.9069 10.7269 11.3647
H 10.6725 0.201823 0.765773
H 9.47367 0.652849 -0.0632908
H 13.5922 9.97565 6.76473
H 13.2152 10.5455 5.32572
H 3.67781 14.0964 8.7488
H 3.53939 14.3835 7.27865
H 3.09567 5.45978 2.78243
H 3.60518 6.19337 4.09913
H 5.08995 9.05489 1.76222
H 4.54185 7.79795 2.5309
H 13.4381 6.67871 2.59019
H 14.7355 6.25337 1.79471
H 0.77524 9.18308 14.2443
H 0.388115 10.6288 14.9234
H 14.1894 4.91997 4.56536
H 14.9228 6.4107 4.60147
H 10.8762 5.93786 7.61697
H 9.58879 6.53361 7.20672
H 12.1014 7.06547 4.8105
H 11.5829 7.27566 3.48345
H 9.70669 3.06202 7.62541
H 9.96186 3.35305 6.0781
H 3.89127 3.51534 11.556
H 5.31618 3.63484 11.0911
H 8.36256 9.80951 10.99
H 7.91946 11.2623 11.3115
H 7.80256 2.56448 14.9346
H 7.58248 1.21916 14.1315
H 6.10462 13.5421 -0.242407
H 4.85977 13.825 0.528199
H 14.4101 13.8153 10.1623
H -0.0704958 13.4422 11.1966
H 11.7088 2.1063 6.54679
H 12.6961 1.18401 5.89058
H 10.9921 7.5299 13.3514
H 11.2636 8.01166 14.7268
H 1.57728 7.89927 5.7134
H 1.87051 8.36741 7.16573
H 11.4302 9.71213 6.20698
H 10.3486 10.1292 5.1128
H 14.4149 8.445 5.04536
H 0.00164071 8.8165 4.03796
H 1.02838 11.8189 4.67407
H 2.36173 10.8675 4.79517
H 6.32838 0.734699 10.265
H 5.21972 -0.301306 10.6492
H 12.568 9.37229 0.310345
H 12.8634 7.95827 0.824663
H 2.56428 7.41349 12.0109
H 3.14156 6.4193 13.0935
H 3.16723 6.41343 5.9805
H 3.10221 4.98312 5.63197
H 7.73547 13.1577 8.33842
H 8.06104 12.6116 6.87934
H 1.75422 3.38105 1.7562
H 3.25148 3.1727 2.47226
H 3.15037 12.6412 14.9757
H 3.16776 12.9566 0.983888
H 0.0720948 5.37286 6.52711
H -0.245356 6.34024 7.61737
H 11.6512 14.8569 8.35832
H 11.802 13.9131 7.23812
H 2.07792 14.3411 2.56175
H 1.50629 0.044002 2.08403
H 6.3968 14.9261 13.4491
H 6.20534 0.425411 12.4267
H 0.660795 9.1318 1.85703
H 0.694078 10.391 2.87312
H 12.3708 14.0972 13.0916
H 12.1841 12.5232 13.366
H 2.09163 12.5603 7.87369
H 0.901668 12.2269 8.80367
H 13.6981 0.109016 0.335681
H 13.4443 14.3386 15.279
H 14.5376 15.2076 4.93591
H 0.228484 14.9795 4.13145
H 9.24837 13.4527 11.622
H 9.52013 12.2417 12.5392
H 12.875 7.30125 7.44426
H 13.1287 6.09272 6.70831
H 8.70364 11.2231 8.31889
H 9.67729 10.2938 7.51515
H 10.4955 10.2933 12.7118
H 10.0325 10.7711 14.1408
H 9.87115 13.0955 5.5737
H 8.95145 12.0108 4.93614
H 4.74251 0.928236 14.2575
H 3.48888 1.81195 13.8977
H 7.56401 13.1017 13.1985
H 6.02622 12.6782 13.2435
H 3.65548 5.64787 8.88705
H 4.53028 5.65688 10.1121
H 10.7483 -0.0654962 13.7661
H 11.7812 0.808853 13.0779
H 8.36482 -0.291862 3.46612
H 8.34757 14.0066 4.25098
H 5.1094 1.81781 2.95108
H 4.6411 2.96006 4.03817
H 12.5339 11.0417 9.22128
H 11.1841 11.2095 8.49369
H 8.60742 10.312 0.576946
H 8.69537 11.7883 0.0583599
H 1.42282 1.68337 7.50469
H 1.60998 2.65673 8.73322
H 8.87953 5.11923 12.1645
H 8.03029 6.40716 12.1505
H 1.95332 8.95172 9.16853
H 1.28006 10.1574 8.3047
H 11.2632 11.2403 2.79611
H 10.7957 9.70539 2.72449
H 11.5653 5.40273 -0.288322
H 11.1896 4.32648 14.2564
H 10.4204 6.65681 9.62663
H 10.2607 6.46258 11.0571
H 5.87632 10.1769 10.5904
H 4.94364 10.8143 9.46912
H 7.91802 7.6928 0.604333
H 7.17835 8.74025 1.63464
H 14.2008 7.92642 9.35992
H -0.267797 8.44072 8.55252
H 6.16366 14.3915 3.8125
H 4.75946 14.0077 3.26281
H 6.35085 1.60272 6.90857
H 4.84301 1.75402 6.76165
H 1.34137 0.662419 9.62968
H 0.817817 14.7755 10.0578
H 10.8342 13.0339 1.10914
H 12.2496 13.5788 1.43103
H 7.99168 4.93257 10.0429
H 8.59208 4.87508 8.55834
H -0.0863874 13.5026 5.64494
H 0.00602987 12.1735 6.56287
H 6.0476 11.6847 7.84187
H 4.65027 12.2574 7.8746
H -0.10786 7.21382 14.4417
H 1.40859 7.20909 13.8607
H 1.10879 5.19843 12.1297
H 0.142322 4.18446 11.4107
H 0.192301 0.569522 11.8253
H 0.262058 0.216297 13.3227
H 13.325 12.966 5.76917
H 12.474 12.1815 6.79075
H 6.96454 1.33987 0.72514
H 6.22808 -0.0168944 1.14781
H 5.28424 6.95392 7.95734
H 5.69738 8.44349 7.79401
H 4.59695 2.96295 -0.156096
H 4.05776 3.8329 1.0606
H 14.2623 2.20361 0.861912
H 14.7961 2.02476 15.1013
H 7.90736 0.984376 2.41964
H 8.42535 2.08554 3.23522
H 9.33834 3.30929 9.83257
H 10.1754 1.88055 10.1119
H 1.75381 4.52695 9.90946
H 1.11552 4.78978 8.54253
H 12.2645 0.0873025 4.07993
H 12.0334 14.6435 5.15054
H 9.97133 5.30379 5.02216
H 9.51596 4.30903 3.95105
H 9.11176 6.41377 14.7882
H 7.57568 6.54 14.599
H 2.07189 2.92609 11.9449
H 2.69894 1.52435 11.845
H 10.8501 14.3815 10.4642
H 10.5118 -0.206863 11.478
H 0.274248 12.7719 0.61942
H 0.108425 11.2293 1.22179
H 9.70727 2.84376 13.3266
H 10.3129 3.49932 12.1129
H 7.16744 3.93944 3.6373
H 7.68964 3.77425 2.12389
H 2.7812 12.2345 3.34142
H 4.17512 12.108 2.65722
H 13.4252 2.63657 7.76521
H 14.4885 3.85196 7.85505
H 1.16553 7.50623 0.684607
H 1.80702 6.9489 2.01705
H 14.4305 9.58843 13.243
H 13.0187 10.0336 13.4694
H 5.70123 2.57075 8.68482
H 6.80813 3.05178 9.52933
H 5.35787 4.80808 5.12533
H 5.96938 3.53575 5.71789
H 13.0854 2.74416 13.3668
H 13.871 1.59988 12.7008
H 8.54415 7.16809 5.28465
H 9.76316 8.11779 5.62097
H 3.5805 7.58031 10.0651
H 3.76188 9.05652 10.3377
H 4.55808 11.8882 11.3243
H 3.56374 12.075 12.5347
H 0.334551 11.7965 12.6005
H 0.24849 12.8839 13.5924
H 6.35726 8.22802 5.65351
H 6.38531 8.12785 4.02112
H 10.214 9.5859 10.0692
H 10.6644 8.57403 11.1276
H 8.95214 14.8857 9.64428
H 7.3584 14.7538 9.70982
H 0.591563 15.0693 0.0182509
H 1.70203 14.3696 14.7724
H 6.4741 3.89198 0.306924
H 7.8908 4.74294 0.474307
H 13.7745 5.25403 11.174
H 12.6407 6.3597 11.1641
H 6.61181 10.3071 13.1711
H 7.38294 10.2018 14.4287
H 5.92965 6.53312 13.3142
H 6.65131 8.00804 13.4902
H 4.1508 10.9057 6.58172
H 3.72612 9.43762 6.27968
H 0.960879 1.05271 5.33877
H 1.48012 2.49213 5.40543
H 8.71011 13.4532 1.93204
H 8.99593 13.78 0.520382
H 3.28533 0.709593 5.89467
H 4.52263 -0.105961 5.1872
H 10.8957 8.12501 1.5533
H 9.392 8.09909 2.00114
H 2.85608 14.8006 10.6062
H 3.90293 13.7417 11.0449
H 6.48734 12.6937 1.54518
H 7.04029 11.6822 2.67807
H 2.24681 10.7375 14.3261
H 3.668 10.6767 14.8241
H 12.3482 3.69431 0.972113
H 13.2921 3.83378 2.19605
H 12.5073 12.8061 9.60602
H 12.5354 13.311 11.1419
H 13.9506 6.55755 12.8999
H 13.4462 7.1125 14.3857
H 11.8334 1.45816 2.05064
H 10.4376 0.894116 2.52875
H 0.844146 1.54638 0.605455
H 2.39804 1.38307 0.478242
H 7.77884 0.12269 7.66547
H 8.60235 1.23456 6.91956
H 12.4122 11.5105 0.551261
H 13.9301 11.2794 0.187093
H 13.8259 3.47873 9.96028
H 13.5184 3.1733 11.5056
H 12.9666 3.11167 5.2382
H 12.0906 4.05916 4.29522
H 5.48443 10.7696 1.07083
H 5.47524 10.05 -0.286949
