LAMMPS (2 Aug 2023)
Running on 32 partitions of processors
