LAMMPS (2 Aug 2023)
Processor partition = 2
OMP_NUM_THREADS environment is not set. Defaulting to 1 thread. (src/comm.cpp:98)
  using 1 OpenMP thread(s) per MPI task
Loaded 1 plugins from /opt/deepmd-kit/lib/deepmd_lmp
clear
OMP_NUM_THREADS environment is not set. Defaulting to 1 thread. (src/comm.cpp:98)
  using 1 OpenMP thread(s) per MPI task
Loaded 1 plugins from /opt/deepmd-kit/lib/deepmd_lmp
# --------------------- VARIABLES-------------------------
variable        ibead           uloop 99 pad
variable        NSTEPS          equal 1000
variable        THERMO_FREQ     equal 1
#variable        DUMP_FREQ       equal 4000
#variable        NREPEAT         equal ${NSTEPS}/${DUMP_FREQ}
variable        TEMP            equal 300.000000
variable        TAU_T           equal 1.000000
# ---------------------- INITIALIZAITION ------------------
units           metal
boundary        p p p
atom_style      atomic
atom_modify     map yes
# --------------------- ATOM DEFINITION ------------------
read_data       /pscratch/sd/y/yifanl/Work/h2o/pimd/initial_config/conf01
Reading data file ...
  orthogonal box = (0 0 0) to (24.76926 24.76926 24.76926)
  1 by 1 by 1 MPI processor grid
  reading atoms ...
  1536 atoms
  read_data CPU = 0.003 seconds
mass            1 16.000000
mass            2 1.000000
replicate       2 2 2
Replication is creating a 2x2x2 = 8 times larger system...
  orthogonal box = (0 0 0) to (49.53852 49.53852 49.53852)
  1 by 1 by 1 MPI processor grid
  12288 atoms
  replicate CPU = 0.001 seconds
# --------------------- FORCE FIELDS ---------------------
pair_style      deepmd /pscratch/sd/y/yifanl/Work/h2o/pimd/benchmark/graph.pb
Summary of lammps deepmd module ...
  >>> Info of deepmd-kit:
  installed to:       /opt/deepmd-kit
  source:             
  source branch:      HEAD
  source commit:      5ec5eae
  source commit at:   2024-02-04 18:53:26 -0500
  support model ver.: 1.1 
  build variant:      cuda
  build with tf inc:  /opt/deepmd-kit/lib/python3.11/site-packages/tensorflow/include;/opt/deepmd-kit/include
  build with tf lib:  /opt/deepmd-kit/lib/python3.11/site-packages/tensorflow/libtensorflow_cc.so.2
  set tf intra_op_parallelism_threads: 0
  set tf inter_op_parallelism_threads: 0
  >>> Info of lammps module:
  use deepmd-kit at:  /opt/deepmd-kitpair_coeff * *
# --------------------- MD SETTINGS ----------------------
neighbor        2.0 bin
neigh_modify    every 10 delay 0 check no
timestep        0.000500
thermo          ${THERMO_FREQ}
thermo          1
thermo_style    custom step pe
#dump            1 all custom ${DUMP_FREQ} ${ibead}.xyz id type x y z
#dump_modify     1 sort id
fix 1 all pimd/langevin ensemble nvt integrator obabo temp ${TEMP} thermostat PILE_L 1234 tau ${TAU_T}
fix 1 all pimd/langevin ensemble nvt integrator obabo temp 300 thermostat PILE_L 1234 tau ${TAU_T}
fix 1 all pimd/langevin ensemble nvt integrator obabo temp 300 thermostat PILE_L 1234 tau 1
# --------------------- RUN ------------------------------
run             ${NSTEPS}
run             1000

CITE-CITE-CITE-CITE-CITE-CITE-CITE-CITE-CITE-CITE-CITE-CITE-CITE

Your simulation uses code contributions which should be cited:

- USER-DEEPMD package:

@article{Wang_ComputPhysCommun_2018_v228_p178,
  author = {Wang, Han and Zhang, Linfeng and Han, Jiequn and E, Weinan},
  doi = {10.1016/j.cpc.2018.03.016},
  url = {https://doi.org/10.1016/j.cpc.2018.03.016},
  year = 2018,
  month = {jul},
  publisher = {Elsevier {BV}},
  volume = 228,
  journal = {Comput. Phys. Commun.},
  title = {{DeePMD-kit: A deep learning package for many-body potential energy representation and molecular dynamics}},
  pages = {178--184}
}
@misc{Zeng_JChemPhys_2023_v159_p054801,
  title  = {{DeePMD-kit v2: A software package for deep potential models}},
  author =   {Jinzhe Zeng and Duo Zhang and Denghui Lu and Pinghui Mo and Zeyu Li
         and Yixiao Chen and Mari{\'a}n Rynik and Li'ang Huang and Ziyao Li and 
         Shaochen Shi and Yingze Wang and Haotian Ye and Ping Tuo and Jiabin
         Yang and Ye Ding and Yifan Li and Davide Tisi and Qiyu Zeng and Han 
         Bao and Yu Xia and Jiameng Huang and Koki Muraoka and Yibo Wang and 
         Junhan Chang and Fengbo Yuan and Sigbj{\o}rn L{\o}land Bore and Chun
         Cai and Yinnian Lin and Bo Wang and Jiayan Xu and Jia-Xin Zhu and 
         Chenxing Luo and Yuzhi Zhang and Rhys E A Goodall and Wenshuo Liang
         and Anurag Kumar Singh and Sikai Yao and Jingchao Zhang and Renata
         Wentzcovitch and Jiequn Han and Jie Liu and Weile Jia and Darrin M
         York and Weinan E and Roberto Car and Linfeng Zhang and Han Wang},
  journal =  {J. Chem. Phys.},
  volume =   159,
  issue =    5,  
  year =    2023,
  pages  =   054801,
  doi =      {10.1063/5.0155600},
}

CITE-CITE-CITE-CITE-CITE-CITE-CITE-CITE-CITE-CITE-CITE-CITE-CITE

Generated 0 of 1 mixed pair_coeff terms from geometric mixing rule

Initializing PI Langevin equation thermostat...
Bead ID    |    omega    |    tau    |    c1    |    c2
    0     0.00000000e+00 1.00000000e+00 9.99750031e-01 2.23578850e-02
    1     2.46383091e+02 2.02936004e-03 8.84094302e-01 4.67308533e-01
    2     4.90393378e+02 1.01958962e-03 7.82550604e-01 6.22586984e-01
    3     7.29680909e+02 6.85231028e-04 6.94307415e-01 7.19678548e-01
    4     9.61941214e+02 5.19782282e-04 6.18183088e-01 7.86034141e-01
    5     1.18493750e+03 4.21963184e-04 5.52960477e-01 8.33207484e-01
    6     1.39652219e+03 3.58032263e-04 4.97449570e-01 8.67492896e-01
    7     1.59465761e+03 3.13546932e-04 4.50530815e-01 8.92760878e-01
    8     1.77743560e+03 2.81304144e-04 4.11182633e-01 9.11552984e-01
    9     1.94309592e+03 2.57321317e-04 3.78496688e-01 9.25602646e-01
    10     2.09004316e+03 2.39229510e-04 3.51684231e-01 9.36118690e-01
    11     2.21686214e+03 2.25544021e-04 3.30076422e-01 9.43954213e-01
    12     2.32233153e+03 2.15300871e-04 3.13120943e-01 9.49713259e-01
    13     2.40543559e+03 2.07862560e-04 3.00376739e-01 9.53820641e-01
    14     2.46537400e+03 2.02808986e-04 2.91508242e-01 9.56568317e-01
    15     2.50156951e+03 1.99874518e-04 2.86280050e-01 9.58145987e-01
    16     2.51367353e+03 1.98912068e-04 2.84552711e-01 9.58660396e-01
    17     2.50156951e+03 1.99874518e-04 2.86280050e-01 9.58145987e-01
    18     2.46537400e+03 2.02808986e-04 2.91508242e-01 9.56568317e-01
    19     2.40543559e+03 2.07862560e-04 3.00376739e-01 9.53820641e-01
    20     2.32233153e+03 2.15300871e-04 3.13120943e-01 9.49713259e-01
    21     2.21686214e+03 2.25544021e-04 3.30076422e-01 9.43954213e-01
    22     2.09004316e+03 2.39229510e-04 3.51684231e-01 9.36118690e-01
    23     1.94309592e+03 2.57321317e-04 3.78496688e-01 9.25602646e-01
    24     1.77743560e+03 2.81304144e-04 4.11182633e-01 9.11552984e-01
    25     1.59465761e+03 3.13546932e-04 4.50530815e-01 8.92760878e-01
    26     1.39652219e+03 3.58032263e-04 4.97449570e-01 8.67492896e-01
    27     1.18493750e+03 4.21963184e-04 5.52960477e-01 8.33207484e-01
    28     9.61941214e+02 5.19782282e-04 6.18183088e-01 7.86034141e-01
    29     7.29680909e+02 6.85231028e-04 6.94307415e-01 7.19678548e-01
    30     4.90393378e+02 1.01958962e-03 7.82550604e-01 6.22586984e-01
    31     2.46383091e+02 2.02936004e-03 8.84094302e-01 4.67308533e-01
PILE_L thermostat successfully initialized!

Neighbor list info ...
  update: every = 10 steps, delay = 0 steps, check = no
  max neighbors/atom: 2000, page size: 100000
  master list distance cutoff = 8
  ghost atom cutoff = 8
  binsize = 4, bins = 13 13 13
  1 neighbor lists, perpetual/occasional/extra = 1 0 0
  (1) pair deepmd, perpetual
      attributes: full, newton on
      pair build: full/bin/atomonly
      stencil: full/bin/3d
      bin: standard
Per MPI rank memory allocation (min/avg/max) = 15.5 | 15.5 | 15.5 Mbytes
   Step         PotEng    
         0  -1914325.3    
         1  -1914113.8    
         2  -1913945.1    
         3  -1913818.6    
         4  -1913719.9    
         5  -1913643.5    
         6  -1913578.9    
         7  -1913514.6    
         8  -1913508.6    
         9  -1913479.7    
        10  -1913472.1    
        11  -1913466      
        12  -1913475.9    
        13  -1913492.4    
        14  -1913500.4    
        15  -1913514.3    
        16  -1913486.6    
        17  -1913477.1    
        18  -1913483.1    
        19  -1913475.3    
        20  -1913471.9    
        21  -1913476.9    
        22  -1913502.6    
        23  -1913531.4    
        24  -1913537.9    
        25  -1913538.9    
        26  -1913532.3    
        27  -1913542      
        28  -1913518.7    
        29  -1913505.7    
        30  -1913511      
        31  -1913498.3    
        32  -1913505.5    
        33  -1913510.1    
        34  -1913499.5    
        35  -1913489.9    
        36  -1913479.1    
        37  -1913453.3    
        38  -1913450.4    
        39  -1913456      
        40  -1913430.1    
        41  -1913448.6    
        42  -1913455.9    
        43  -1913465.5    
        44  -1913451.8    
        45  -1913475.2    
        46  -1913493.2    
        47  -1913510.5    
        48  -1913504.7    
        49  -1913502.4    
        50  -1913504.9    
        51  -1913494      
        52  -1913476.8    
        53  -1913486.7    
        54  -1913498.7    
        55  -1913506.3    
        56  -1913492.8    
        57  -1913485      
        58  -1913482.3    
        59  -1913465.3    
        60  -1913459.5    
        61  -1913466.7    
        62  -1913483.2    
        63  -1913500.3    
        64  -1913487.3    
        65  -1913504.1    
        66  -1913502      
        67  -1913503.9    
        68  -1913505      
        69  -1913517.7    
        70  -1913506.5    
        71  -1913499.7    
        72  -1913491.1    
        73  -1913505.6    
        74  -1913515.1    
        75  -1913510.8    
        76  -1913488.2    
        77  -1913478.4    
        78  -1913481.4    
        79  -1913489.9    
        80  -1913489.7    
        81  -1913494.7    
        82  -1913474.9    
        83  -1913472.2    
        84  -1913479      
        85  -1913490.3    
        86  -1913490.3    
        87  -1913484.9    
        88  -1913489.6    
        89  -1913483.2    
        90  -1913487.5    
        91  -1913491.6    
        92  -1913501.6    
        93  -1913516.7    
        94  -1913495.5    
        95  -1913494.5    
        96  -1913500.9    
        97  -1913494.6    
        98  -1913496.3    
        99  -1913485.6    
       100  -1913472      
       101  -1913460.9    
       102  -1913485.5    
       103  -1913490.1    
       104  -1913470.1    
       105  -1913486.2    
       106  -1913508.5    
       107  -1913500.7    
       108  -1913500.7    
       109  -1913501      
       110  -1913486.5    
       111  -1913492.8    
       112  -1913483.5    
       113  -1913509.9    
       114  -1913512      
       115  -1913510.9    
       116  -1913498.1    
       117  -1913487.5    
       118  -1913481.4    
       119  -1913474.4    
       120  -1913476.6    
       121  -1913460.8    
       122  -1913456.7    
       123  -1913469.2    
       124  -1913478.8    
       125  -1913482.1    
       126  -1913468      
       127  -1913474.9    
       128  -1913465.1    
       129  -1913475.7    
       130  -1913464.1    
       131  -1913479.7    
       132  -1913484.7    
       133  -1913488.1    
       134  -1913486      
       135  -1913472.7    
       136  -1913479.1    
       137  -1913496.7    
       138  -1913480.3    
       139  -1913493.5    
       140  -1913488.5    
       141  -1913462.8    
       142  -1913459      
       143  -1913458.9    
       144  -1913451.7    
       145  -1913452.7    
       146  -1913471.8    
       147  -1913468.8    
       148  -1913488.4    
       149  -1913495.8    
       150  -1913502.4    
       151  -1913481.2    
       152  -1913501.9    
       153  -1913502.6    
       154  -1913519.7    
       155  -1913523.1    
       156  -1913500.6    
       157  -1913499.1    
       158  -1913486.9    
       159  -1913477.9    
       160  -1913485.5    
       161  -1913482.5    
       162  -1913462.7    
       163  -1913464.4    
       164  -1913470.5    
       165  -1913477.3    
       166  -1913478.8    
       167  -1913475.4    
       168  -1913481.5    
       169  -1913483.7    
       170  -1913477.1    
       171  -1913470.5    
       172  -1913489.1    
       173  -1913468.8    
       174  -1913459.8    
       175  -1913473.1    
       176  -1913461.2    
       177  -1913454.7    
       178  -1913454      
       179  -1913462.5    
       180  -1913451.9    
       181  -1913446      
       182  -1913466.8    
       183  -1913451.2    
       184  -1913464.1    
       185  -1913446.5    
       186  -1913439.2    
       187  -1913436.1    
       188  -1913449.6    
       189  -1913458.9    
       190  -1913483.2    
       191  -1913473.8    
       192  -1913481.5    
       193  -1913471.3    
       194  -1913485.9    
       195  -1913486.3    
       196  -1913486.5    
       197  -1913474.4    
       198  -1913464.8    
       199  -1913460      
       200  -1913435.8    
       201  -1913448.5    
       202  -1913463      
       203  -1913453.2    
       204  -1913429.4    
       205  -1913444.6    
       206  -1913448.6    
       207  -1913434.3    
       208  -1913421.4    
       209  -1913435.5    
       210  -1913446.9    
       211  -1913447.9    
       212  -1913460.3    
       213  -1913469.4    
       214  -1913473.7    
       215  -1913493      
       216  -1913496.2    
       217  -1913494.3    
       218  -1913480.3    
       219  -1913479.5    
       220  -1913475      
       221  -1913495.2    
       222  -1913475.8    
       223  -1913465.2    
       224  -1913454.9    
       225  -1913459.6    
       226  -1913474      
       227  -1913463.2    
       228  -1913477.5    
       229  -1913459.5    
       230  -1913455.7    
       231  -1913468.6    
       232  -1913468.5    
       233  -1913441.8    
       234  -1913454.3    
       235  -1913460.5    
       236  -1913459      
       237  -1913476.9    
       238  -1913470.2    
       239  -1913477.5    
       240  -1913472.7    
       241  -1913469.9    
       242  -1913459.3    
       243  -1913447.5    
       244  -1913458.7    
       245  -1913457      
       246  -1913468.6    
       247  -1913472.6    
       248  -1913464.1    
       249  -1913450.8    
       250  -1913456.9    
       251  -1913459.6    
       252  -1913462      
       253  -1913455      
       254  -1913447.3    
       255  -1913447.6    
       256  -1913465.8    
       257  -1913491.4    
       258  -1913487.5    
       259  -1913474.7    
       260  -1913473.6    
       261  -1913472.6    
       262  -1913499.9    
       263  -1913486.2    
       264  -1913482.3    
       265  -1913486.7    
       266  -1913455.8    
       267  -1913434.2    
       268  -1913439.1    
       269  -1913452.9    
       270  -1913454.4    
       271  -1913476.9    
       272  -1913478.8    
       273  -1913467.7    
       274  -1913468.7    
       275  -1913478.1    
       276  -1913467.8    
       277  -1913472.7    
       278  -1913478.9    
       279  -1913441.6    
       280  -1913451      
       281  -1913461.7    
       282  -1913470.3    
       283  -1913470.3    
       284  -1913472.7    
       285  -1913476.1    
       286  -1913464.4    
       287  -1913444.6    
       288  -1913444.1    
       289  -1913459.3    
       290  -1913489.2    
       291  -1913489.1    
       292  -1913455.8    
       293  -1913453.6    
       294  -1913451.8    
       295  -1913448.9    
       296  -1913429.9    
       297  -1913468.5    
       298  -1913458.3    
       299  -1913461.5    
       300  -1913456.3    
       301  -1913446.1    
       302  -1913453.9    
       303  -1913461.3    
       304  -1913455.9    
       305  -1913473      
       306  -1913451.8    
       307  -1913463      
       308  -1913468.8    
       309  -1913471.1    
       310  -1913448.4    
       311  -1913442.3    
       312  -1913470.3    
       313  -1913448      
       314  -1913447.9    
       315  -1913451.8    
       316  -1913470.8    
       317  -1913456.4    
       318  -1913454.7    
       319  -1913443.7    
       320  -1913432.3    
       321  -1913435      
       322  -1913450.4    
       323  -1913445.7    
       324  -1913433.1    
       325  -1913457.8    
       326  -1913469.5    
       327  -1913442.1    
       328  -1913427.9    
       329  -1913430.1    
       330  -1913447.3    
       331  -1913436.1    
       332  -1913451.5    
       333  -1913454.3    
       334  -1913452.7    
       335  -1913465.4    
       336  -1913448.9    
       337  -1913442.5    
       338  -1913443.1    
       339  -1913439.7    
       340  -1913421.1    
       341  -1913446.9    
       342  -1913464.5    
       343  -1913451.5    
       344  -1913449.6    
       345  -1913479.4    
       346  -1913473.7    
       347  -1913471      
       348  -1913480.4    
       349  -1913447.4    
       350  -1913441.6    
       351  -1913431.7    
       352  -1913439.7    
       353  -1913461.4    
       354  -1913464.5    
       355  -1913470.2    
       356  -1913453      
       357  -1913459.4    
       358  -1913465.3    
       359  -1913451.7    
       360  -1913457.8    
       361  -1913445.8    
       362  -1913449.9    
       363  -1913466.9    
       364  -1913460.7    
       365  -1913467.9    
       366  -1913466.8    
       367  -1913446.7    
       368  -1913454.1    
       369  -1913441.3    
       370  -1913429.8    
       371  -1913416.1    
       372  -1913416.5    
       373  -1913428      
       374  -1913438.3    
       375  -1913437.9    
       376  -1913466      
       377  -1913456.9    
       378  -1913441.4    
       379  -1913441.8    
       380  -1913446.2    
       381  -1913437.2    
       382  -1913435.8    
       383  -1913452.8    
       384  -1913435.8    
       385  -1913444.9    
       386  -1913438.5    
       387  -1913434.4    
       388  -1913447.9    
       389  -1913462.6    
       390  -1913455.7    
       391  -1913453.3    
       392  -1913453      
       393  -1913454.7    
       394  -1913445.4    
       395  -1913459      
       396  -1913450.3    
       397  -1913458      
       398  -1913448.9    
       399  -1913457.3    
       400  -1913438.4    
       401  -1913450.2    
       402  -1913463      
       403  -1913460      
       404  -1913461.9    
       405  -1913454.7    
       406  -1913463.9    
       407  -1913457.2    
       408  -1913487.9    
       409  -1913462.2    
       410  -1913445.5    
       411  -1913438.2    
       412  -1913441      
       413  -1913458.9    
       414  -1913445.2    
       415  -1913447.5    
       416  -1913462.7    
       417  -1913474.6    
       418  -1913458      
       419  -1913447.8    
       420  -1913460.9    
       421  -1913469.9    
       422  -1913448.5    
       423  -1913444.7    
       424  -1913451.6    
       425  -1913433      
       426  -1913445.8    
       427  -1913437      
       428  -1913427      
       429  -1913442      
       430  -1913433.1    
       431  -1913445.8    
       432  -1913443.3    
       433  -1913435.6    
       434  -1913427.6    
       435  -1913438.2    
       436  -1913430.6    
       437  -1913441.4    
       438  -1913456.7    
       439  -1913445.9    
       440  -1913439.3    
       441  -1913447.1    
       442  -1913450.2    
       443  -1913435.8    
       444  -1913451.6    
       445  -1913428.6    
       446  -1913441.9    
       447  -1913431.6    
       448  -1913442.8    
       449  -1913436.4    
       450  -1913419.5    
       451  -1913434      
       452  -1913442.7    
       453  -1913441.2    
       454  -1913425.2    
       455  -1913444.4    
       456  -1913447.9    
       457  -1913444.2    
       458  -1913452.7    
       459  -1913469.4    
       460  -1913466.9    
       461  -1913443.4    
       462  -1913446.3    
       463  -1913438.7    
       464  -1913453.1    
       465  -1913431.2    
       466  -1913441.1    
       467  -1913455.2    
       468  -1913459.6    
       469  -1913452.7    
       470  -1913450.5    
       471  -1913438      
       472  -1913448      
       473  -1913467.5    
       474  -1913462.9    
       475  -1913461.1    
       476  -1913432.9    
       477  -1913426      
       478  -1913431.6    
       479  -1913419.6    
       480  -1913441      
       481  -1913447.5    
       482  -1913433.2    
       483  -1913430.2    
       484  -1913446.9    
       485  -1913451.2    
       486  -1913433.6    
       487  -1913455      
       488  -1913466.3    
       489  -1913437.8    
       490  -1913449.4    
       491  -1913450.5    
       492  -1913463.6    
       493  -1913459.1    
       494  -1913459      
       495  -1913455.3    
       496  -1913441.9    
       497  -1913440.8    
       498  -1913447.7    
       499  -1913448.1    
       500  -1913469      
       501  -1913454.3    
       502  -1913465      
       503  -1913458.7    
       504  -1913439.1    
       505  -1913445.4    
       506  -1913427      
       507  -1913422.5    
       508  -1913433.4    
       509  -1913457.6    
       510  -1913459.7    
       511  -1913453.6    
       512  -1913436.4    
       513  -1913448.5    
       514  -1913438.4    
       515  -1913441.2    
       516  -1913421.3    
       517  -1913421.4    
       518  -1913422.6    
       519  -1913401.6    
       520  -1913414.8    
       521  -1913425.6    
       522  -1913434.9    
       523  -1913461.6    
       524  -1913447.5    
       525  -1913445.1    
       526  -1913466.9    
       527  -1913468.5    
       528  -1913468.8    
       529  -1913458.5    
       530  -1913461.1    
       531  -1913444      
       532  -1913447.1    
       533  -1913458.1    
       534  -1913460.7    
       535  -1913457.4    
       536  -1913468.3    
       537  -1913441.5    
       538  -1913433.6    
       539  -1913431.3    
       540  -1913426.4    
       541  -1913430.8    
       542  -1913446.3    
       543  -1913461.4    
       544  -1913470.3    
       545  -1913458.2    
       546  -1913452.7    
       547  -1913463      
       548  -1913461.6    
       549  -1913462.6    
       550  -1913483.8    
       551  -1913477      
       552  -1913449.2    
       553  -1913430      
       554  -1913431.5    
       555  -1913419.5    
       556  -1913417.7    
       557  -1913407.8    
       558  -1913429.2    
       559  -1913430.1    
       560  -1913437      
       561  -1913418.8    
       562  -1913415.4    
       563  -1913425.4    
       564  -1913424.1    
       565  -1913445.4    
       566  -1913429.5    
       567  -1913450.1    
       568  -1913426.3    
       569  -1913436.1    
       570  -1913416.2    
       571  -1913429.4    
       572  -1913437.7    
       573  -1913423      
       574  -1913412.5    
       575  -1913408.5    
       576  -1913430.3    
       577  -1913454.4    
       578  -1913461.3    
       579  -1913450      
       580  -1913442.2    
       581  -1913440.4    
       582  -1913444.8    
       583  -1913433.7    
       584  -1913421.8    
       585  -1913423.6    
       586  -1913432.8    
       587  -1913462.5    
       588  -1913462.2    
       589  -1913442.9    
       590  -1913437.3    
       591  -1913441.7    
       592  -1913454.8    
       593  -1913441.3    
       594  -1913444.6    
       595  -1913447.2    
       596  -1913448.3    
       597  -1913442.2    
       598  -1913442.4    
       599  -1913439.6    
       600  -1913432.3    
       601  -1913438      
       602  -1913438.9    
       603  -1913444.6    
       604  -1913428.4    
       605  -1913427.8    
       606  -1913439.6    
       607  -1913426.2    
       608  -1913441.8    
       609  -1913468.1    
       610  -1913453      
       611  -1913428.7    
       612  -1913409.5    
       613  -1913407.8    
       614  -1913411.7    
       615  -1913401.8    
       616  -1913419.5    
       617  -1913437.2    
       618  -1913437.3    
       619  -1913433.2    
       620  -1913444.9    
       621  -1913463.3    
       622  -1913471.2    
       623  -1913454.7    
       624  -1913465.3    
       625  -1913469.2    
       626  -1913475.4    
       627  -1913448.3    
       628  -1913425.5    
       629  -1913421.1    
       630  -1913411.8    
       631  -1913422.2    
       632  -1913440.4    
       633  -1913426.8    
       634  -1913429.9    
       635  -1913419.2    
       636  -1913419      
       637  -1913430.6    
       638  -1913420.1    
       639  -1913407.9    
       640  -1913415      
       641  -1913426.9    
       642  -1913432.1    
       643  -1913445.4    
       644  -1913453.7    
       645  -1913435.2    
       646  -1913443.7    
       647  -1913443.4    
       648  -1913455.8    
       649  -1913441      
       650  -1913452.9    
       651  -1913432      
       652  -1913433.5    
       653  -1913447.4    
       654  -1913428.4    
       655  -1913408.8    
       656  -1913420.1    
       657  -1913420      
       658  -1913413      
       659  -1913414.6    
       660  -1913418      
       661  -1913424.9    
       662  -1913427.7    
       663  -1913409.8    
       664  -1913420.9    
       665  -1913432.8    
       666  -1913414.4    
       667  -1913430.9    
       668  -1913426.8    
       669  -1913422.3    
       670  -1913428.9    
       671  -1913431.1    
       672  -1913414.2    
       673  -1913421.1    
       674  -1913435.8    
       675  -1913440.7    
       676  -1913429.3    
       677  -1913398.3    
       678  -1913418.8    
       679  -1913428.6    
       680  -1913442.8    
       681  -1913469.7    
       682  -1913459.3    
       683  -1913457.1    
       684  -1913443.7    
       685  -1913435.2    
       686  -1913438.7    
       687  -1913437.8    
       688  -1913438.5    
       689  -1913430.5    
       690  -1913428.2    
       691  -1913436.5    
       692  -1913426.7    
       693  -1913413.2    
       694  -1913414.3    
       695  -1913425.5    
       696  -1913427.5    
       697  -1913449      
       698  -1913435.6    
       699  -1913430      
       700  -1913408.6    
       701  -1913415.5    
       702  -1913439.1    
       703  -1913434.1    
       704  -1913433.6    
       705  -1913435.8    
       706  -1913433.3    
       707  -1913433.3    
       708  -1913431.1    
       709  -1913421.3    
       710  -1913413.2    
       711  -1913406.8    
       712  -1913418.4    
       713  -1913414.2    
       714  -1913415.3    
       715  -1913412.9    
       716  -1913407.6    
       717  -1913417.5    
       718  -1913423.7    
       719  -1913416.6    
       720  -1913420.3    
       721  -1913412.4    
       722  -1913420.9    
       723  -1913418.1    
       724  -1913400.7    
       725  -1913399.8    
       726  -1913406.1    
       727  -1913413.7    
       728  -1913416.8    
       729  -1913409.8    
       730  -1913417.6    
       731  -1913425.1    
       732  -1913429.8    
       733  -1913422.8    
       734  -1913417.6    
       735  -1913414.7    
       736  -1913404      
       737  -1913394.2    
       738  -1913411.8    
       739  -1913415.8    
       740  -1913406.9    
       741  -1913424.7    
       742  -1913417.3    
       743  -1913429.3    
       744  -1913434.6    
       745  -1913438.3    
       746  -1913449.5    
       747  -1913449.2    
       748  -1913454.9    
       749  -1913447.4    
       750  -1913427.7    
       751  -1913425.1    
       752  -1913415.3    
       753  -1913423.3    
       754  -1913422.9    
       755  -1913416.5    
       756  -1913415.9    
       757  -1913430.4    
       758  -1913409      
       759  -1913422.1    
       760  -1913428.5    
       761  -1913411.8    
       762  -1913414.4    
       763  -1913406.9    
       764  -1913405.4    
       765  -1913433.5    
       766  -1913429.7    
       767  -1913431.2    
       768  -1913432.7    
       769  -1913438.5    
       770  -1913444.4    
       771  -1913454      
       772  -1913441.2    
       773  -1913449.1    
       774  -1913428.9    
       775  -1913412.1    
       776  -1913407.3    
       777  -1913425.1    
       778  -1913418.6    
       779  -1913410.3    
       780  -1913390.5    
       781  -1913395.2    
       782  -1913411.2    
       783  -1913420.7    
       784  -1913417.4    
       785  -1913427.5    
       786  -1913415.5    
       787  -1913406      
       788  -1913425.4    
       789  -1913410.9    
       790  -1913426.3    
       791  -1913417.7    
       792  -1913415.3    
       793  -1913416      
       794  -1913427.3    
       795  -1913433.9    
       796  -1913421      
       797  -1913429.7    
       798  -1913426.6    
       799  -1913426.3    
       800  -1913419.4    
       801  -1913418.9    
       802  -1913412.4    
       803  -1913434.6    
       804  -1913421.5    
       805  -1913415.1    
       806  -1913414.9    
       807  -1913410.6    
       808  -1913425.9    
       809  -1913419      
       810  -1913396.1    
       811  -1913395.7    
       812  -1913392.5    
       813  -1913404.2    
       814  -1913405.5    
       815  -1913423.1    
       816  -1913413.3    
       817  -1913415.7    
       818  -1913411.8    
       819  -1913413.4    
       820  -1913420.5    
       821  -1913430      
       822  -1913447.7    
       823  -1913453.5    
       824  -1913422.6    
       825  -1913419      
       826  -1913421.7    
       827  -1913420.6    
       828  -1913409.6    
       829  -1913405.5    
       830  -1913424.8    
       831  -1913414.4    
       832  -1913403.8    
       833  -1913405.1    
       834  -1913405.7    
       835  -1913410.9    
       836  -1913446      
       837  -1913434.6    
       838  -1913432.3    
       839  -1913407.4    
       840  -1913418.8    
       841  -1913429.8    
       842  -1913432.2    
       843  -1913424      
       844  -1913424.9    
       845  -1913435.6    
       846  -1913419.3    
       847  -1913403.8    
       848  -1913390.4    
       849  -1913412.1    
       850  -1913436.9    
       851  -1913443.6    
       852  -1913435.9    
       853  -1913420.8    
       854  -1913409      
       855  -1913408.4    
       856  -1913423.6    
       857  -1913424      
       858  -1913411.7    
       859  -1913412      
       860  -1913420.7    
       861  -1913425.7    
       862  -1913428.3    
       863  -1913430.5    
       864  -1913443.2    
       865  -1913436      
       866  -1913406      
       867  -1913417.7    
       868  -1913422      
       869  -1913412.7    
       870  -1913423.7    
       871  -1913422.4    
       872  -1913403.8    
       873  -1913409.7    
       874  -1913413.6    
       875  -1913410.4    
       876  -1913400.1    
       877  -1913412      
       878  -1913391.9    
       879  -1913404      
       880  -1913407.8    
       881  -1913409.9    
       882  -1913433.6    
       883  -1913435.6    
       884  -1913442.1    
       885  -1913455.7    
       886  -1913436.4    
       887  -1913428.4    
       888  -1913417.6    
       889  -1913425.1    
       890  -1913432.7    
       891  -1913436.7    
       892  -1913435.7    
       893  -1913439.2    
       894  -1913424.2    
       895  -1913443.2    
       896  -1913456.4    
       897  -1913442.4    
       898  -1913419.8    
       899  -1913431.8    
       900  -1913437.6    
       901  -1913438.1    
       902  -1913430.5    
       903  -1913443.7    
       904  -1913433.4    
       905  -1913425.2    
       906  -1913419.3    
       907  -1913436.7    
       908  -1913438.8    
       909  -1913422.9    
       910  -1913417.9    
       911  -1913421.4    
       912  -1913424.2    
       913  -1913421.2    
       914  -1913437.6    
       915  -1913436.2    
       916  -1913440.6    
       917  -1913426.5    
       918  -1913422.1    
       919  -1913396.5    
       920  -1913392.7    
       921  -1913397.2    
       922  -1913399      
       923  -1913402.5    
       924  -1913402.3    
       925  -1913426.2    
       926  -1913426.1    
       927  -1913428.1    
       928  -1913422.3    
       929  -1913423      
       930  -1913437.8    
       931  -1913438.5    
       932  -1913414.2    
       933  -1913406.9    
       934  -1913415.9    
       935  -1913412.8    
       936  -1913405.8    
       937  -1913419.1    
       938  -1913428.1    
       939  -1913426      
       940  -1913425.1    
       941  -1913412.5    
       942  -1913408.5    
       943  -1913403.8    
       944  -1913443      
       945  -1913439      
       946  -1913417.3    
       947  -1913416      
       948  -1913420.5    
       949  -1913436.6    
       950  -1913420.9    
       951  -1913417.7    
       952  -1913419.2    
       953  -1913417.9    
       954  -1913398.9    
       955  -1913404.2    
       956  -1913401.6    
       957  -1913421.5    
       958  -1913438.5    
       959  -1913437.6    
       960  -1913422.7    
       961  -1913420.5    
       962  -1913415.7    
       963  -1913420.2    
       964  -1913424.3    
       965  -1913410.2    
       966  -1913409.5    
       967  -1913409      
       968  -1913414.4    
       969  -1913437.3    
       970  -1913442.3    
       971  -1913443.3    
       972  -1913442.5    
       973  -1913413      
       974  -1913428.1    
       975  -1913427.8    
       976  -1913415.5    
       977  -1913412.6    
       978  -1913419.7    
       979  -1913415.8    
       980  -1913419.6    
       981  -1913432.9    
       982  -1913436.9    
       983  -1913378.8    
       984  -1913393      
       985  -1913413.9    
       986  -1913430.6    
       987  -1913424.8    
       988  -1913441.9    
       989  -1913425.3    
       990  -1913425.7    
       991  -1913405.6    
       992  -1913412.3    
       993  -1913400.5    
       994  -1913381.6    
       995  -1913372.9    
       996  -1913392.7    
       997  -1913416.8    
       998  -1913416.8    
       999  -1913415      
      1000  -1913415.3    
Loop time of 447.112 on 1 procs for 1000 steps with 12288 atoms

Performance: 0.097 ns/day, 248.395 hours/ns, 2.237 timesteps/s, 27.483 katom-step/s
101.2% CPU use with 1 MPI tasks x 1 OpenMP threads

MPI task timing breakdown:
Section |  min time  |  avg time  |  max time  |%varavg| %total
---------------------------------------------------------------
Pair    | 317.27     | 317.27     | 317.27     |   0.0 | 70.96
Neigh   | 6.2947     | 6.2947     | 6.2947     |   0.0 |  1.41
Comm    | 0.17522    | 0.17522    | 0.17522    |   0.0 |  0.04
Output  | 0.02176    | 0.02176    | 0.02176    |   0.0 |  0.00
Modify  | 123.21     | 123.21     | 123.21     |   0.0 | 27.56
Other   |            | 0.1332     |            |       |  0.03

Nlocal:          12288 ave       12288 max       12288 min
Histogram: 1 0 0 0 0 0 0 0 0 0
Nghost:          15819 ave       15819 max       15819 min
Histogram: 1 0 0 0 0 0 0 0 0 0
Neighs:              0 ave           0 max           0 min
Histogram: 1 0 0 0 0 0 0 0 0 0
FullNghs:  2.65547e+06 ave 2.65547e+06 max 2.65547e+06 min
Histogram: 1 0 0 0 0 0 0 0 0 0

Total # of neighbors = 2655466
Ave neighs/atom = 216.10238
Neighbor list builds = 100
Dangerous builds not checked
write_data      final.${ibead}
write_data      final.03
System init for write_data ...
Generated 0 of 1 mixed pair_coeff terms from geometric mixing rule

Initializing PI Langevin equation thermostat...
Bead ID    |    omega    |    tau    |    c1    |    c2
    0     0.00000000e+00 1.00000000e+00 9.99750031e-01 2.23578850e-02
    1     2.46383091e+02 2.02936004e-03 8.84094302e-01 4.67308533e-01
    2     4.90393378e+02 1.01958962e-03 7.82550604e-01 6.22586984e-01
    3     7.29680909e+02 6.85231028e-04 6.94307415e-01 7.19678548e-01
    4     9.61941214e+02 5.19782282e-04 6.18183088e-01 7.86034141e-01
    5     1.18493750e+03 4.21963184e-04 5.52960477e-01 8.33207484e-01
    6     1.39652219e+03 3.58032263e-04 4.97449570e-01 8.67492896e-01
    7     1.59465761e+03 3.13546932e-04 4.50530815e-01 8.92760878e-01
    8     1.77743560e+03 2.81304144e-04 4.11182633e-01 9.11552984e-01
    9     1.94309592e+03 2.57321317e-04 3.78496688e-01 9.25602646e-01
    10     2.09004316e+03 2.39229510e-04 3.51684231e-01 9.36118690e-01
    11     2.21686214e+03 2.25544021e-04 3.30076422e-01 9.43954213e-01
    12     2.32233153e+03 2.15300871e-04 3.13120943e-01 9.49713259e-01
    13     2.40543559e+03 2.07862560e-04 3.00376739e-01 9.53820641e-01
    14     2.46537400e+03 2.02808986e-04 2.91508242e-01 9.56568317e-01
    15     2.50156951e+03 1.99874518e-04 2.86280050e-01 9.58145987e-01
    16     2.51367353e+03 1.98912068e-04 2.84552711e-01 9.58660396e-01
    17     2.50156951e+03 1.99874518e-04 2.86280050e-01 9.58145987e-01
    18     2.46537400e+03 2.02808986e-04 2.91508242e-01 9.56568317e-01
    19     2.40543559e+03 2.07862560e-04 3.00376739e-01 9.53820641e-01
    20     2.32233153e+03 2.15300871e-04 3.13120943e-01 9.49713259e-01
    21     2.21686214e+03 2.25544021e-04 3.30076422e-01 9.43954213e-01
    22     2.09004316e+03 2.39229510e-04 3.51684231e-01 9.36118690e-01
    23     1.94309592e+03 2.57321317e-04 3.78496688e-01 9.25602646e-01
    24     1.77743560e+03 2.81304144e-04 4.11182633e-01 9.11552984e-01
    25     1.59465761e+03 3.13546932e-04 4.50530815e-01 8.92760878e-01
    26     1.39652219e+03 3.58032263e-04 4.97449570e-01 8.67492896e-01
    27     1.18493750e+03 4.21963184e-04 5.52960477e-01 8.33207484e-01
    28     9.61941214e+02 5.19782282e-04 6.18183088e-01 7.86034141e-01
    29     7.29680909e+02 6.85231028e-04 6.94307415e-01 7.19678548e-01
    30     4.90393378e+02 1.01958962e-03 7.82550604e-01 6.22586984e-01
    31     2.46383091e+02 2.02936004e-03 8.84094302e-01 4.67308533e-01
PILE_L thermostat successfully initialized!

Total wall time: 0:07:47
