384
# CELL(abcABC): 15.415860 15.415860 15.415860 90.0 90.0 90.0 Traj: positions{angstrom} cell{angstrom} Step: 4000 Bead: 0
O       8.821270000000000     -0.222537000000000     10.850600000000000
O      16.211900000000000      4.809940000000000     12.670500000000001
O       9.431050000000001     13.152200000000001      6.643090000000000
O       4.648740000000000      0.577057000000000     10.038700000000000
O      13.899800000000001     11.147600000000001     11.688100000000000
O       5.600040000000000     -0.118257000000000      4.452220000000000
O      15.665900000000001      4.728500000000000      3.994510000000000
O      -1.437060000000000     14.504000000000000      6.865050000000000
O       4.584540000000000      6.083330000000000      2.871900000000000
O       3.703440000000000     13.473300000000000      5.014070000000000
O      14.280400000000000      3.872550000000000      0.516324000000000
O      -0.900706000000000     13.617400000000000     11.185800000000000
O      12.944900000000001      3.155150000000000      5.926600000000000
O      10.642500000000000      3.080250000000000      0.165181000000000
O      10.452400000000001      5.645390000000000      7.630630000000000
O       5.665950000000000      0.908468000000000     14.012000000000000
O       7.798360000000000      8.977710000000000     12.668900000000001
O       8.207030000000000      6.900960000000000      6.884390000000000
O      10.330800000000000     -1.524810000000000     14.067600000000001
O      11.787500000000000     10.351200000000000     -1.969000000000000
O       1.342830000000000     15.846800000000000     11.920199999999999
O      12.847600000000000     -4.246340000000000      4.035950000000000
O      14.624300000000000      9.637589999999999      9.464570000000000
O       7.568450000000000     10.711399999999999      4.378470000000000
O      12.277500000000000      8.815759999999999      4.949130000000000
O      -5.692790000000000      8.850339999999999      3.584430000000000
O       4.934340000000000      9.456149999999999      7.108410000000000
O       4.172670000000000      3.089440000000000     10.240600000000001
O      21.196999999999999     10.678900000000001      1.659140000000000
O       8.286809999999999      8.986129999999999      9.939780000000001
O       4.572860000000000      6.868270000000000      0.253452000000000
O       3.296660000000000     11.469799999999999     10.814700000000000
O       1.785560000000000      8.507820000000001      1.631750000000000
O       2.842440000000000      7.767420000000000     -1.915480000000000
O       0.288531000000000      7.509840000000000     11.344600000000000
O      15.824900000000000     13.828500000000000      8.771220000000000
O      -1.567250000000000     15.083200000000000     -1.837150000000000
O       5.150170000000000      2.373590000000000     16.195100000000000
O       2.138440000000000     13.359700000000000      0.770150000000000
O       9.411230000000000     11.457800000000001     12.939399999999999
O       1.489600000000000     11.435000000000000      8.714169999999999
O      12.060300000000000     16.094700000000000     -3.446170000000000
O       0.084810800000000     14.702900000000000      4.614330000000000
O       8.688490000000000      6.952860000000000     15.426000000000000
O      14.172700000000001      1.604340000000000      7.900470000000000
O      15.374700000000001     12.025200000000000      4.221450000000000
O       6.733090000000000      1.370200000000000     17.999199999999998
O       7.848010000000000     13.356700000000000     -0.485670000000000
O       5.538240000000000      4.373380000000000     14.549799999999999
O       5.477280000000000     13.833500000000001     13.365100000000000
O       0.294002000000000     10.275800000000000     13.872900000000000
O       7.396200000000000      1.727790000000000      7.372070000000000
O       4.113470000000000     11.981700000000000     -0.162994000000000
O       8.227080000000001     -0.629454000000000      1.689060000000000
O      12.351200000000000      9.468660000000000      7.588990000000000
O      12.730399999999999      6.407300000000000      1.860840000000000
O      -1.413640000000000      1.943880000000000     10.595499999999999
O       4.995430000000000      3.052190000000000      7.692880000000000
O       2.789600000000000     10.436500000000001     13.398099999999999
O      13.109299999999999      9.677250000000001      0.241213000000000
O      10.114300000000000      1.347140000000000     13.514600000000000
O       8.747010000000000      4.387230000000000     11.630800000000001
O       5.567600000000000      9.762300000000000      9.762980000000001
O       9.115500000000001      6.296530000000000      4.377810000000000
O      19.188500000000001      7.722870000000000      5.242310000000000
O       2.719510000000000     19.495500000000000      3.789690000000000
O       2.847140000000000      2.637340000000000      6.183640000000000
O      -6.479590000000000      4.653810000000000     16.763300000000001
O      11.442000000000000     12.609600000000000      2.149700000000000
O      11.047599999999999      7.632330000000000      9.001510000000000
O      16.543199999999999     10.248900000000001      6.132550000000000
O       9.583720000000000     11.071000000000000      8.173019999999999
O      -0.514566000000000     12.105300000000000     15.922200000000000
O      -2.010730000000000      6.559530000000000     12.739900000000000
O      -5.569330000000000      6.384660000000000     13.156800000000000
O      14.909500000000000      7.773630000000000     -0.457784000000000
O       7.139540000000000     -0.819326000000000      6.543370000000000
O       7.670200000000000      2.712100000000000      4.677870000000000
O       2.453660000000000      0.113161000000000      6.053080000000000
O      12.037699999999999      5.384290000000000     -0.499114000000000
O       7.153370000000000      4.965910000000000      3.305820000000000
O      11.037699999999999      0.365849000000000      5.349490000000000
O       0.728795000000000      3.449330000000000      7.617740000000000
O      12.771100000000001      6.266260000000000      6.399770000000000
O       3.980280000000000      4.262640000000000     -2.851850000000000
O      10.684600000000000      0.665432000000000     17.379000000000001
O       3.653700000000000      6.387180000000000      9.261799999999999
O      10.835200000000000     19.531300000000002      9.709020000000001
O      -2.669560000000000     13.217800000000000     -0.480708000000000
O      11.352399999999999      8.307060000000000     11.837899999999999
O       3.736460000000000      9.788740000000001      3.358930000000000
O      -0.260736000000000     16.222899999999999      2.469850000000000
O      17.662500000000001      0.234385000000000      8.883030000000000
O       4.367250000000000      7.837240000000000     -4.030550000000000
O      15.027699999999999      7.094170000000000     17.890000000000001
O       1.741490000000000      7.588440000000000      7.187950000000000
O       6.031030000000000      5.813960000000000      8.300990000000001
O      13.948499999999999      2.976050000000000     18.470800000000001
O       9.455900000000000     11.452999999999999      0.561311000000000
O       1.280350000000000      4.924290000000000     15.660700000000000
O       3.276150000000000     17.210799999999999     13.866500000000000
O      -1.103910000000000      6.463600000000000      8.996650000000001
O       9.073980000000001     12.809200000000001      3.742270000000000
O      12.174500000000000     12.392600000000000      6.082190000000000
O      10.571199999999999     15.344500000000000      7.804420000000000
O       2.599500000000000     18.140499999999999     16.921800000000001
O       6.417950000000000      6.548410000000000     -2.518820000000000
O      11.034000000000001      4.805830000000000     18.606100000000001
O       7.532900000000000      6.460420000000000     10.244500000000000
O       6.513940000000000      8.616989999999999     15.442700000000000
O       7.617900000000000      9.626550000000000      6.782790000000000
O       1.823680000000000      4.527350000000000     10.016299999999999
O       2.481390000000000     12.135400000000001      3.033930000000000
O       5.491250000000000     -1.594350000000000      8.413309999999999
O      15.329499999999999      5.565270000000000      6.449240000000000
O       3.340320000000000     14.222000000000000     12.004400000000000
O       4.001710000000000     11.863099999999999      7.051210000000000
O       6.699690000000000     13.450200000000001     11.015900000000000
O      13.038100000000000     -0.403659000000000      1.783590000000000
O      12.092100000000000     14.271500000000000     10.065799999999999
O       7.567730000000000      1.859740000000000     12.203900000000001
O      10.045600000000000     -3.062380000000000     -4.894700000000000
O       1.479980000000000      0.396613000000000      0.703293000000000
O       9.443750000000000      2.038660000000000      8.754890000000000
O      10.927099999999999      8.469590000000000      1.191520000000000
O      13.298100000000000      4.598940000000000     10.939200000000000
O      10.075200000000001      2.307940000000000      3.956650000000000
O      -0.047766500000000     17.286700000000000     -1.156070000000000
H       8.495559999999999      0.255879000000000     10.046300000000000
H       8.402760000000001      0.422771000000000     11.535800000000000
H      15.689500000000001      4.172250000000000     12.500900000000000
H       0.922516000000000      4.804030000000000     13.617800000000001
H       9.767239999999999     13.944800000000001      7.152290000000000
H       8.382149999999999     13.441300000000000      6.604570000000000
H       4.709470000000000      0.159488000000000     10.854600000000000
H       4.893180000000000      1.542310000000000     10.252599999999999
H      14.043400000000000     10.548900000000000     10.786300000000001
H      12.884399999999999     10.993600000000001     11.947400000000000
H       5.847530000000000      0.260659000000000      3.550650000000000
H       5.074790000000000     -0.828624000000000      4.287610000000000
H      15.571500000000000      5.184600000000000      4.783730000000000
H      16.605499999999999      4.473030000000000      3.915190000000000
H      -1.560240000000000     15.467000000000001      7.070900000000000
H      -0.936589000000000     14.165500000000000      7.685420000000000
H       4.461220000000000      6.361380000000000      1.958490000000000
H       5.550890000000000      5.721010000000000      3.020610000000000
H       3.371460000000000     13.102100000000000      4.119040000000000
H       3.987300000000000     12.635400000000001      5.536860000000000
H      13.894600000000001      3.405860000000000      1.262540000000000
H      13.443899999999999      4.318680000000000      0.156885000000000
H      -0.695961000000000     14.203099999999999     11.806699999999999
H      -1.151190000000000     12.709199999999999     11.542500000000000
H      13.285500000000001      3.122230000000000      5.033500000000000
H      12.385600000000000      3.985060000000000      5.971960000000000
H      11.346299999999999      3.827160000000000      0.046159100000000
H       9.948910000000000      3.605620000000000      0.854758000000000
H      10.648600000000000      6.600290000000000      8.007260000000000
H       9.512540000000000      5.903060000000000      7.189770000000000
H       5.714420000000000      0.046062600000000     13.644700000000000
H       4.753880000000000      1.197670000000000     13.735300000000001
H       8.372030000000001      8.766470000000000     11.929399999999999
H       8.361549999999999      9.743430000000000     13.027200000000001
H       7.885970000000000      7.900020000000000      6.867640000000000
H       7.464470000000000      6.358660000000000      7.397360000000000
H       9.382009999999999     -1.636460000000000     14.286600000000000
H      10.379000000000000     -0.612389000000000     13.818899999999999
H      10.820499999999999     10.706700000000000     -1.993730000000000
H      12.206200000000001     10.617100000000001     -1.071760000000000
H      15.776800000000000     16.169799999999999     12.003399999999999
H       1.353110000000000     16.274400000000000     11.065799999999999
H      12.508900000000001     -3.948690000000000      3.211710000000000
H      12.477100000000000     -3.613440000000000      5.075870000000000
H      15.331899999999999     10.229100000000001      9.158939999999999
H      13.993100000000000      9.440840000000000      8.705710000000000
H       6.884020000000000     10.406200000000000      3.884530000000000
H       8.082470000000001     11.612500000000001      3.791260000000000
H      12.491600000000000      9.748220000000000      4.442340000000000
H      11.377200000000000      8.705430000000000      4.585390000000000
H       8.969709999999999      9.524910000000000      3.532000000000000
H      -6.115020000000000      7.935900000000000      3.862010000000000
H       4.943130000000000      8.909120000000000      7.903380000000000
H       4.671770000000000      8.857690000000000      6.381030000000000
H       3.321040000000000      3.217300000000000      9.911619999999999
H       4.288130000000000      3.567340000000000     11.079400000000000
H      20.421199999999999     10.353500000000000      2.282770000000000
H      20.776499999999999     11.236900000000000      1.042720000000000
H       9.358169999999999      8.769560000000000      9.801230000000000
H       7.692590000000000      8.155760000000001      9.813210000000000
H       3.721020000000000      7.063020000000000     -0.524357000000000
H       5.196860000000000      7.580330000000000      0.104626000000000
H       3.054170000000000     10.781300000000000     11.562700000000000
H       4.067740000000000     10.993700000000000     10.350400000000000
H       2.514120000000000      8.665600000000000      2.228630000000000
H       2.178890000000000      7.687530000000000      1.177790000000000
H       2.672490000000000      8.667909999999999     13.457000000000001
H       2.201920000000000      7.273300000000000     -2.250630000000000
H      -0.033553100000000      8.187690000000000     10.773099999999999
H       0.238230000000000      6.740620000000000     10.732799999999999
H      15.317100000000000     13.854400000000000      9.678330000000001
H      16.440300000000001     14.552899999999999      9.010840000000000
H      -1.394650000000000     15.915800000000001     -1.285840000000000
H      -2.355280000000000     -0.035153800000000     -2.449670000000000
H       5.090620000000000     17.222100000000001     15.423900000000000
H       4.235750000000000      2.427410000000000     16.515499999999999
H       1.971010000000000     14.380500000000000      0.591825000000000
H       1.281550000000000     13.119100000000000      0.710787000000000
H       9.771789999999999     12.359100000000000     13.339600000000001
H       9.634850000000000     11.601300000000000     12.119899999999999
H       2.244770000000000     11.455500000000001      9.336050000000000
H       1.123750000000000     12.422700000000001      8.831700000000000
H      11.685900000000000     -0.076256400000000     -4.161640000000000
H      11.171900000000001     16.362200000000001     12.369999999999999
H      14.901999999999999     14.736599999999999      5.368520000000000
H       0.139718000000000     13.689000000000000      4.347290000000000
H       8.100370000000000      7.709690000000000     15.523099999999999
H       8.897420000000000      6.899940000000000     14.439100000000000
H      13.887499999999999      1.383630000000000      8.865010000000000
H      13.569800000000001      2.252550000000000      7.517390000000000
H      15.808400000000001     11.378200000000000      4.979610000000000
H      14.430600000000000     11.581700000000000      4.289400000000000
H       6.027690000000000      2.120210000000000     17.563300000000002
H       7.109460000000000      1.632250000000000     18.824400000000001
H       6.958680000000000     13.575799999999999     -1.043300000000000
H       7.739200000000000     13.896300000000000      0.264481000000000
H       5.370050000000000      3.586690000000000     15.021100000000001
H       5.297830000000000      5.202620000000000     15.161199999999999
H       5.999250000000000     13.644000000000000     12.541399999999999
H       4.597510000000000     14.040400000000000     12.907400000000001
H       0.476276000000000      9.471980000000000     14.451400000000000
H      -0.705789000000000     10.259100000000000     13.691900000000000
H       7.254810000000000      0.635527000000000      7.323800000000000
H       8.180859999999999      1.914510000000000      7.922470000000000
H       3.410870000000000     -2.807580000000000      0.210226000000000
H       4.644480000000000     12.645000000000000     -0.584924000000000
H       7.814060000000000      0.151630000000000      2.157530000000000
H       8.427160000000001     -1.422320000000000      2.243540000000000
H      12.183500000000000      9.141220000000001      6.709820000000000
H      11.574600000000000     10.153200000000000      7.439050000000000
H      13.613200000000001      6.848830000000000      2.246190000000000
H      12.049099999999999      7.240900000000000      1.959080000000000
H      -1.286550000000000      2.710020000000000     11.023199999999999
H      -2.162940000000000      1.421170000000000     11.190700000000000
H       4.538930000000000      3.161440000000000      8.592449999999999
H       5.683960000000000      2.402830000000000      7.688660000000000
H       1.811460000000000     10.520600000000000     13.651800000000000
H       3.187080000000000     10.989599999999999     14.074100000000000
H      12.282999999999999      9.301130000000001      0.662737000000000
H      13.612800000000000     10.140800000000000      0.935544000000000
H      10.332100000000001      2.034300000000000     -1.204800000000000
H       9.143400000000000      1.746400000000000     13.326499999999999
H       8.397240000000000      5.196590000000000     11.094400000000000
H       9.340389999999999      4.133860000000000     10.888999999999999
H       6.391100000000000      9.964150000000000     10.337999999999999
H       5.290990000000000      8.959199999999999     10.202199999999999
H       8.731310000000001      6.659350000000000      5.403280000000000
H       8.398949999999999      5.820000000000000      3.833630000000000
H      19.359300000000001      6.896050000000000      4.627470000000000
H       3.107420000000000      7.502190000000000      5.933790000000000
H       3.341570000000000     20.156500000000001      3.526840000000000
H       3.165190000000000     18.957400000000000      4.569050000000000
H       2.940270000000000      1.719000000000000      6.345020000000000
H       3.763570000000000      2.770770000000000      6.704280000000000
H      -6.641420000000000      5.404640000000000     16.341799999999999
H      -5.691630000000000     20.414100000000001     17.272800000000000
H      10.919000000000000     11.987700000000000      1.584970000000000
H      11.761200000000001     13.467100000000000      1.982350000000000
H      11.216300000000000      7.555590000000000     10.007000000000000
H      11.524900000000001      8.493010000000000      8.519920000000001
H       1.015570000000000      9.231960000000001      6.493200000000000
H       1.015920000000000     10.602000000000000      7.153300000000000
H       9.627590000000000     11.837800000000000      7.639910000000000
H       8.737450000000001     10.500400000000001      8.041610000000000
H      -1.259040000000000     12.462100000000000     15.349500000000001
H       0.011053200000000     11.582200000000000     15.286899999999999
H      -2.129050000000000      6.541410000000000     13.759399999999999
H      -1.245600000000000      7.012310000000000     12.288900000000000
H      -5.120000000000000      7.278170000000000     12.739300000000000
H      -5.844740000000000      5.831940000000000     12.459199999999999
H      14.099500000000001      8.339330000000000     -0.400705000000000
H      15.077000000000000      7.598950000000000      0.417113000000000
H       6.682630000000000     -0.468714000000000      5.655470000000000
H       6.431060000000000     -1.195880000000000      7.313800000000000
H       8.668799999999999      2.464920000000000      4.528980000000000
H       7.557970000000000      2.473230000000000      5.635510000000000
H       3.005710000000000     -0.637265000000000      5.950930000000000
H       1.618380000000000     -0.184948000000000      5.677310000000000
H      11.308600000000000      5.702180000000000     -0.939894000000000
H      12.175700000000001      5.897010000000000     15.926399999999999
H       7.627690000000000      4.632080000000000      2.536770000000000
H       7.314980000000000      4.225500000000000      3.967060000000000
H      11.013999999999999      1.226370000000000      4.926700000000000
H      11.948399999999999      0.130243000000000      5.166290000000000
H       1.591320000000000      3.215060000000000      7.030880000000000
H       0.120724000000000      2.530410000000000      7.609610000000000
H      11.904999999999999     -9.258440000000000      6.707310000000000
H      12.752300000000000      6.958010000000000      5.810490000000000
H       3.303000000000000      4.965390000000000     -2.731800000000000
H       4.375380000000000      4.351010000000000     -1.980580000000000
H      10.570800000000000      1.375590000000000     16.661300000000001
H       9.941390000000000      0.040811300000000     17.251400000000000
H       3.104870000000000      5.687630000000000      9.738130000000000
H       3.823450000000000      7.022990000000000      9.945280000000000
H      11.529500000000001     19.683299999999999     10.400200000000000
H      10.897900000000000      4.844870000000000      9.089000000000000
H      -2.291540000000000     13.933400000000001     -1.126480000000000
H      -3.536320000000000     13.293400000000000     -0.859907000000000
H      11.993000000000000      7.682070000000000     12.398600000000000
H      11.577800000000000      9.201480000000000     12.038800000000000
H       3.487650000000000      9.309740000000000      4.195230000000000
H       3.147700000000000     10.667700000000000      3.384320000000000
H      -0.123114000000000     15.587600000000000      3.352230000000000
H      -0.943036000000000     15.716300000000000      2.104230000000000
H      17.688600000000001      0.354751000000000      7.930780000000000
H      18.575700000000001      0.332710000000000      9.241350000000001
H       3.550220000000000      7.777960000000000     -3.441850000000000
H       5.143220000000000      7.581200000000000     -3.398420000000000
H      15.470300000000000      6.425750000000000     18.384300000000000
H      15.742900000000001      7.755240000000000     17.978600000000000
H       1.116770000000000      6.716690000000000      6.902520000000000
H       2.248330000000000      7.231220000000000      8.013629999999999
H       5.316500000000000      5.880860000000000      8.798290000000000
H       5.957530000000000      4.771290000000000      7.974620000000000
H      14.473800000000001      1.928200000000000     18.349299999999999
H      14.733200000000000      3.628380000000000     18.763300000000001
H       9.474570000000000     10.548100000000000      0.262474000000000
H       8.622629999999999     11.809200000000001      0.320856000000000
H       1.372810000000000      5.708950000000000     16.249600000000001
H       0.336912000000000      4.424910000000000     15.747400000000001
H       3.148050000000000     18.099399999999999     13.192500000000001
H       2.518380000000000     16.711200000000002     13.515400000000000
H      -0.047765600000000      6.317080000000000      8.746400000000000
H      -1.674340000000000      6.292780000000000      8.232609999999999
H       9.342449999999999     13.368100000000000      4.460350000000000
H       9.803660000000001     12.925000000000001      3.193870000000000
H      11.338600000000000     12.516100000000000      5.854100000000000
H      12.653499999999999     13.295700000000000      6.222230000000000
H      10.988400000000000     15.462300000000001      6.895530000000000
H      11.143100000000000     14.879899999999999      8.380950000000000
H       2.799960000000000     18.518300000000000      2.481550000000000
H       2.023040000000000     18.733499999999999     16.386800000000001
H       6.101560000000000      5.988440000000000     -1.815760000000000
H       7.077100000000000      7.239300000000000     -2.080330000000000
H      11.836300000000000      5.105030000000000     18.336800000000000
H      10.726000000000001      5.355620000000000     19.392900000000001
H       6.911240000000000      6.257410000000000      9.367100000000001
H       6.988770000000000      6.345480000000000     11.103000000000000
H       6.727020000000000      8.768319999999999     14.348900000000000
H       6.290570000000000      9.456690000000000     15.980800000000000
H       7.726190000000000      9.898550000000000      5.983840000000000
H       6.624350000000000      9.519660000000000      6.961070000000000
H       1.223970000000000      4.131690000000000      9.407880000000000
H       1.273820000000000      4.363000000000000     10.928400000000000
H       2.389460000000000     12.687300000000000      2.249500000000000
H       1.578740000000000     12.215600000000000      3.484520000000000
H       5.065090000000000     -1.018960000000000      9.007750000000000
H       4.868810000000000     -2.351630000000000      8.167740000000000
H      15.432100000000000      4.469450000000000      6.707370000000000
H      14.311299999999999      5.848620000000000      6.667750000000000
H       2.447150000000000     14.737500000000001     12.014500000000000
H       3.285540000000000     13.240000000000000     11.624599999999999
H       3.155650000000000     11.727100000000000      7.535870000000000
H       4.246720000000000     10.910399999999999      7.051430000000000
H       7.677340000000000     13.794800000000000     11.061400000000001
H       6.522050000000000     13.309400000000000      9.964330000000000
H      13.057399999999999     -0.998723000000000      0.913271000000000
H      12.005599999999999     -0.114406000000000      1.634030000000000
H      12.799700000000000     14.331000000000000     10.684500000000000
H      11.624499999999999     13.270500000000000     10.084600000000000
H       6.947300000000000      1.693970000000000     13.009800000000000
H       7.746370000000000      2.756710000000000     12.069000000000001
H       9.758270000000000     -2.095790000000000     -5.039820000000000
H       9.401890000000000     -3.470930000000000     -5.608180000000000
H       2.166530000000000      1.052680000000000      1.071640000000000
H       0.809966000000000      0.481104000000000      1.497310000000000
H       9.989369999999999      2.919160000000000      8.860070000000000
H       9.941220000000000      1.208190000000000      8.410740000000001
H      10.334400000000000      8.651100000000000      2.079600000000000
H      10.389400000000000      8.076060000000000      0.714122000000000
H      13.608800000000000      4.921380000000000     10.035299999999999
H      13.139799999999999      5.265780000000000     11.636900000000001
H      10.327800000000000      1.624610000000000      3.204830000000000
H      10.627000000000001      3.152580000000000      3.655180000000000
H      -0.374401000000000     17.915299999999998     -0.449043000000000
H       0.522645000000000     16.699999999999999     -0.449323000000000
