LAMMPS (2 Aug 2023)
Processor partition = 1
OMP_NUM_THREADS environment is not set. Defaulting to 1 thread. (src/comm.cpp:98)
  using 1 OpenMP thread(s) per MPI task
Loaded 1 plugins from /opt/deepmd-kit/lib/deepmd_lmp
clear
OMP_NUM_THREADS environment is not set. Defaulting to 1 thread. (src/comm.cpp:98)
  using 1 OpenMP thread(s) per MPI task
Loaded 1 plugins from /opt/deepmd-kit/lib/deepmd_lmp
# --------------------- VARIABLES-------------------------
variable        ibead           uloop 99 pad
variable        NSTEPS          equal 1000
variable        THERMO_FREQ     equal 1
#variable        DUMP_FREQ       equal 4000
#variable        NREPEAT         equal ${NSTEPS}/${DUMP_FREQ}
variable        TEMP            equal 300.000000
variable        TAU_T           equal 1.000000
# ---------------------- INITIALIZAITION ------------------
units           metal
boundary        p p p
atom_style      atomic
atom_modify     map yes
# --------------------- ATOM DEFINITION ------------------
read_data       /pscratch/sd/y/yifanl/Work/h2o/pimd/initial_config/conf01
Reading data file ...
  orthogonal box = (0 0 0) to (24.76926 24.76926 24.76926)
  1 by 1 by 1 MPI processor grid
  reading atoms ...
  1536 atoms
  read_data CPU = 0.005 seconds
mass            1 16.000000
mass            2 1.000000
replicate       5 5 5
Replication is creating a 5x5x5 = 125 times larger system...
  orthogonal box = (0 0 0) to (123.8463 123.8463 123.8463)
  1 by 1 by 1 MPI processor grid
  192000 atoms
  replicate CPU = 0.011 seconds
# --------------------- FORCE FIELDS ---------------------
pair_style      deepmd /pscratch/sd/y/yifanl/Work/h2o/pimd/benchmark/graph.pb
Summary of lammps deepmd module ...
  >>> Info of deepmd-kit:
  installed to:       /opt/deepmd-kit
  source:             
  source branch:      HEAD
  source commit:      5ec5eae
  source commit at:   2024-02-04 18:53:26 -0500
  support model ver.: 1.1 
  build variant:      cuda
  build with tf inc:  /opt/deepmd-kit/lib/python3.11/site-packages/tensorflow/include;/opt/deepmd-kit/include
  build with tf lib:  /opt/deepmd-kit/lib/python3.11/site-packages/tensorflow/libtensorflow_cc.so.2
  set tf intra_op_parallelism_threads: 0
  set tf inter_op_parallelism_threads: 0
  >>> Info of lammps module:
  use deepmd-kit at:  /opt/deepmd-kitpair_coeff * *
# --------------------- MD SETTINGS ----------------------
neighbor        2.0 bin
neigh_modify    every 10 delay 0 check no
timestep        0.000500
thermo          ${THERMO_FREQ}
thermo          1
thermo_style    custom step pe
#dump            1 all custom ${DUMP_FREQ} ${ibead}.xyz id type x y z
#dump_modify     1 sort id
fix 1 all pimd/langevin ensemble nvt integrator obabo temp ${TEMP} thermostat PILE_L 1234 tau ${TAU_T}
fix 1 all pimd/langevin ensemble nvt integrator obabo temp 300 thermostat PILE_L 1234 tau ${TAU_T}
fix 1 all pimd/langevin ensemble nvt integrator obabo temp 300 thermostat PILE_L 1234 tau 1
# --------------------- RUN ------------------------------
run             ${NSTEPS}
run             1000

CITE-CITE-CITE-CITE-CITE-CITE-CITE-CITE-CITE-CITE-CITE-CITE-CITE

Your simulation uses code contributions which should be cited:

- USER-DEEPMD package:

@article{Wang_ComputPhysCommun_2018_v228_p178,
  author = {Wang, Han and Zhang, Linfeng and Han, Jiequn and E, Weinan},
  doi = {10.1016/j.cpc.2018.03.016},
  url = {https://doi.org/10.1016/j.cpc.2018.03.016},
  year = 2018,
  month = {jul},
  publisher = {Elsevier {BV}},
  volume = 228,
  journal = {Comput. Phys. Commun.},
  title = {{DeePMD-kit: A deep learning package for many-body potential energy representation and molecular dynamics}},
  pages = {178--184}
}
@misc{Zeng_JChemPhys_2023_v159_p054801,
  title  = {{DeePMD-kit v2: A software package for deep potential models}},
  author =   {Jinzhe Zeng and Duo Zhang and Denghui Lu and Pinghui Mo and Zeyu Li
         and Yixiao Chen and Mari{\'a}n Rynik and Li'ang Huang and Ziyao Li and 
         Shaochen Shi and Yingze Wang and Haotian Ye and Ping Tuo and Jiabin
         Yang and Ye Ding and Yifan Li and Davide Tisi and Qiyu Zeng and Han 
         Bao and Yu Xia and Jiameng Huang and Koki Muraoka and Yibo Wang and 
         Junhan Chang and Fengbo Yuan and Sigbj{\o}rn L{\o}land Bore and Chun
         Cai and Yinnian Lin and Bo Wang and Jiayan Xu and Jia-Xin Zhu and 
         Chenxing Luo and Yuzhi Zhang and Rhys E A Goodall and Wenshuo Liang
         and Anurag Kumar Singh and Sikai Yao and Jingchao Zhang and Renata
         Wentzcovitch and Jiequn Han and Jie Liu and Weile Jia and Darrin M
         York and Weinan E and Roberto Car and Linfeng Zhang and Han Wang},
  journal =  {J. Chem. Phys.},
  volume =   159,
  issue =    5,  
  year =    2023,
  pages  =   054801,
  doi =      {10.1063/5.0155600},
}

CITE-CITE-CITE-CITE-CITE-CITE-CITE-CITE-CITE-CITE-CITE-CITE-CITE

Generated 0 of 1 mixed pair_coeff terms from geometric mixing rule

Initializing PI Langevin equation thermostat...
Bead ID    |    omega    |    tau    |    c1    |    c2
    0     0.00000000e+00 1.00000000e+00 9.99750031e-01 2.23578850e-02
    1     2.46383091e+02 2.02936004e-03 8.84094302e-01 4.67308533e-01
    2     4.90393378e+02 1.01958962e-03 7.82550604e-01 6.22586984e-01
    3     7.29680909e+02 6.85231028e-04 6.94307415e-01 7.19678548e-01
    4     9.61941214e+02 5.19782282e-04 6.18183088e-01 7.86034141e-01
    5     1.18493750e+03 4.21963184e-04 5.52960477e-01 8.33207484e-01
    6     1.39652219e+03 3.58032263e-04 4.97449570e-01 8.67492896e-01
    7     1.59465761e+03 3.13546932e-04 4.50530815e-01 8.92760878e-01
    8     1.77743560e+03 2.81304144e-04 4.11182633e-01 9.11552984e-01
    9     1.94309592e+03 2.57321317e-04 3.78496688e-01 9.25602646e-01
    10     2.09004316e+03 2.39229510e-04 3.51684231e-01 9.36118690e-01
    11     2.21686214e+03 2.25544021e-04 3.30076422e-01 9.43954213e-01
    12     2.32233153e+03 2.15300871e-04 3.13120943e-01 9.49713259e-01
    13     2.40543559e+03 2.07862560e-04 3.00376739e-01 9.53820641e-01
    14     2.46537400e+03 2.02808986e-04 2.91508242e-01 9.56568317e-01
    15     2.50156951e+03 1.99874518e-04 2.86280050e-01 9.58145987e-01
    16     2.51367353e+03 1.98912068e-04 2.84552711e-01 9.58660396e-01
    17     2.50156951e+03 1.99874518e-04 2.86280050e-01 9.58145987e-01
    18     2.46537400e+03 2.02808986e-04 2.91508242e-01 9.56568317e-01
    19     2.40543559e+03 2.07862560e-04 3.00376739e-01 9.53820641e-01
    20     2.32233153e+03 2.15300871e-04 3.13120943e-01 9.49713259e-01
    21     2.21686214e+03 2.25544021e-04 3.30076422e-01 9.43954213e-01
    22     2.09004316e+03 2.39229510e-04 3.51684231e-01 9.36118690e-01
    23     1.94309592e+03 2.57321317e-04 3.78496688e-01 9.25602646e-01
    24     1.77743560e+03 2.81304144e-04 4.11182633e-01 9.11552984e-01
    25     1.59465761e+03 3.13546932e-04 4.50530815e-01 8.92760878e-01
    26     1.39652219e+03 3.58032263e-04 4.97449570e-01 8.67492896e-01
    27     1.18493750e+03 4.21963184e-04 5.52960477e-01 8.33207484e-01
    28     9.61941214e+02 5.19782282e-04 6.18183088e-01 7.86034141e-01
    29     7.29680909e+02 6.85231028e-04 6.94307415e-01 7.19678548e-01
    30     4.90393378e+02 1.01958962e-03 7.82550604e-01 6.22586984e-01
    31     2.46383091e+02 2.02936004e-03 8.84094302e-01 4.67308533e-01
PILE_L thermostat successfully initialized!

Neighbor list info ...
  update: every = 10 steps, delay = 0 steps, check = no
  max neighbors/atom: 2000, page size: 100000
  master list distance cutoff = 8
  ghost atom cutoff = 8
  binsize = 4, bins = 31 31 31
  1 neighbor lists, perpetual/occasional/extra = 1 0 0
  (1) pair deepmd, perpetual
      attributes: full, newton on
      pair build: full/bin/atomonly
      stencil: full/bin/3d
      bin: standard
Per MPI rank memory allocation (min/avg/max) = 202 | 202 | 202 Mbytes
   Step         PotEng    
         0  -29911333     
         1  -29907982     
         2  -29905362     
         3  -29903432     
         4  -29902009     
         5  -29900834     
         6  -29899863     
         7  -29899018     
         8  -29898394     
         9  -29898039     
        10  -29897992     
        11  -29898069     
        12  -29898334     
        13  -29898503     
        14  -29898592     
        15  -29898509     
        16  -29898162     
        17  -29897929     
        18  -29897716     
        19  -29897620     
        20  -29897728     
        21  -29898075     
        22  -29898455     
        23  -29898913     
        24  -29899261     
        25  -29899404     
        26  -29899313     
        27  -29899102     
        28  -29898843     
        29  -29898789     
        30  -29898772     
        31  -29898821     
        32  -29898791     
        33  -29898759     
        34  -29898690     
        35  -29898436     
        36  -29898167     
        37  -29897957     
        38  -29897757     
        39  -29897677     
        40  -29897681     
        41  -29897756     
        42  -29897860     
        43  -29897988     
        44  -29898099     
        45  -29898108     
        46  -29898085     
        47  -29898114     
        48  -29898219     
        49  -29898248     
        50  -29898257     
        51  -29898257     
        52  -29898231     
        53  -29898188     
        54  -29898173     
        55  -29898021     
        56  -29898001     
        57  -29897922     
        58  -29897890     
        59  -29897810     
        60  -29897947     
        61  -29898031     
        62  -29898123     
        63  -29898238     
        64  -29898325     
        65  -29898412     
        66  -29898443     
        67  -29898485     
        68  -29898619     
        69  -29898674     
        70  -29898751     
        71  -29898713     
        72  -29898660     
        73  -29898593     
        74  -29898462     
        75  -29898388     
        76  -29898372     
        77  -29898241     
        78  -29898191     
        79  -29898111     
        80  -29898103     
        81  -29898159     
        82  -29898088     
        83  -29898083     
        84  -29898184     
        85  -29898286     
        86  -29898326     
        87  -29898424     
        88  -29898493     
        89  -29898580     
        90  -29898533     
        91  -29898493     
        92  -29898494     
        93  -29898452     
        94  -29898419     
        95  -29898335     
        96  -29898261     
        97  -29898267     
        98  -29898166     
        99  -29898091     
       100  -29897937     
       101  -29897932     
       102  -29897898     
       103  -29897888     
       104  -29897916     
       105  -29897954     
       106  -29898017     
       107  -29898065     
       108  -29898206     
       109  -29898285     
       110  -29898247     
       111  -29898311     
       112  -29898316     
       113  -29898392     
       114  -29898426     
       115  -29898315     
       116  -29898150     
       117  -29898041     
       118  -29898007     
       119  -29897923     
       120  -29897862     
       121  -29897827     
       122  -29897838     
       123  -29897802     
       124  -29897954     
       125  -29898007     
       126  -29898104     
       127  -29898112     
       128  -29898141     
       129  -29898147     
       130  -29898143     
       131  -29898204     
       132  -29898341     
       133  -29898327     
       134  -29898200     
       135  -29898211     
       136  -29898100     
       137  -29898016     
       138  -29898029     
       139  -29897966     
       140  -29897901     
       141  -29897931     
       142  -29897894     
       143  -29897898     
       144  -29897953     
       145  -29898005     
       146  -29898033     
       147  -29898092     
       148  -29898067     
       149  -29898140     
       150  -29898166     
       151  -29898210     
       152  -29898248     
       153  -29898310     
       154  -29898334     
       155  -29898239     
       156  -29898158     
       157  -29898171     
       158  -29898018     
       159  -29898067     
       160  -29898111     
       161  -29898081     
       162  -29898080     
       163  -29898078     
       164  -29898084     
       165  -29898075     
       166  -29898069     
       167  -29897942     
       168  -29898012     
       169  -29898093     
       170  -29898183     
       171  -29898146     
       172  -29898218     
       173  -29898115     
       174  -29898125     
       175  -29898156     
       176  -29898098     
       177  -29898017     
       178  -29898050     
       179  -29898037     
       180  -29897958     
       181  -29897916     
       182  -29897870     
       183  -29897929     
       184  -29898005     
       185  -29897867     
       186  -29897854     
       187  -29897855     
       188  -29897886     
       189  -29897924     
       190  -29897933     
       191  -29897944     
       192  -29897981     
       193  -29898008     
       194  -29898015     
       195  -29898009     
       196  -29898062     
       197  -29898009     
       198  -29898000     
       199  -29897969     
       200  -29897927     
       201  -29897907     
       202  -29897869     
       203  -29897838     
       204  -29897752     
       205  -29897850     
       206  -29897859     
       207  -29897939     
       208  -29897911     
       209  -29897962     
       210  -29897988     
       211  -29897888     
       212  -29897905     
       213  -29897853     
       214  -29897864     
       215  -29897858     
       216  -29897785     
       217  -29897805     
       218  -29897785     
       219  -29897789     
       220  -29897827     
       221  -29897813     
       222  -29897849     
       223  -29897867     
       224  -29897851     
       225  -29897975     
       226  -29897969     
       227  -29897928     
       228  -29897910     
       229  -29897839     
       230  -29897865     
       231  -29897867     
       232  -29897828     
       233  -29897824     
       234  -29897864     
       235  -29897880     
       236  -29897834     
       237  -29897832     
       238  -29897838     
       239  -29897843     
       240  -29897841     
       241  -29897803     
       242  -29897812     
       243  -29897831     
       244  -29897892     
       245  -29897868     
       246  -29897771     
       247  -29897781     
       248  -29897724     
       249  -29897800     
       250  -29897768     
       251  -29897826     
       252  -29897749     
       253  -29897838     
       254  -29897795     
       255  -29897831     
       256  -29897808     
       257  -29897727     
       258  -29897764     
       259  -29897845     
       260  -29897831     
       261  -29897866     
       262  -29897850     
       263  -29897745     
       264  -29897730     
       265  -29897736     
       266  -29897820     
       267  -29897837     
       268  -29897872     
       269  -29897856     
       270  -29897805     
       271  -29897816     
       272  -29897790     
       273  -29897776     
       274  -29897805     
       275  -29897836     
       276  -29897876     
       277  -29897881     
       278  -29897832     
       279  -29897806     
       280  -29897846     
       281  -29897835     
       282  -29897812     
       283  -29897836     
       284  -29897814     
       285  -29897823     
       286  -29897852     
       287  -29897765     
       288  -29897708     
       289  -29897700     
       290  -29897739     
       291  -29897782     
       292  -29897766     
       293  -29897761     
       294  -29897805     
       295  -29897734     
       296  -29897744     
       297  -29897772     
       298  -29897808     
       299  -29897790     
       300  -29897802     
       301  -29897844     
       302  -29897866     
       303  -29897864     
       304  -29897866     
       305  -29897892     
       306  -29897897     
       307  -29897864     
       308  -29897869     
       309  -29897814     
       310  -29897746     
       311  -29897764     
       312  -29897685     
       313  -29897648     
       314  -29897671     
       315  -29897760     
       316  -29897731     
       317  -29897827     
       318  -29897721     
       319  -29897676     
       320  -29897718     
       321  -29897669     
       322  -29897751     
       323  -29897740     
       324  -29897685     
       325  -29897672     
       326  -29897700     
       327  -29897685     
       328  -29897667     
       329  -29897618     
       330  -29897662     
       331  -29897663     
       332  -29897671     
       333  -29897550     
       334  -29897557     
       335  -29897614     
       336  -29897659     
       337  -29897647     
       338  -29897669     
       339  -29897660     
       340  -29897622     
       341  -29897582     
       342  -29897541     
       343  -29897554     
       344  -29897641     
       345  -29897695     
       346  -29897714     
       347  -29897615     
       348  -29897597     
       349  -29897617     
       350  -29897709     
       351  -29897640     
       352  -29897557     
       353  -29897555     
       354  -29897593     
       355  -29897609     
       356  -29897640     
       357  -29897673     
       358  -29897703     
       359  -29897656     
       360  -29897573     
       361  -29897614     
       362  -29897655     
       363  -29897623     
       364  -29897637     
       365  -29897623     
       366  -29897578     
       367  -29897528     
       368  -29897518     
       369  -29897602     
       370  -29897619     
       371  -29897668     
       372  -29897656     
       373  -29897619     
       374  -29897564     
       375  -29897641     
       376  -29897549     
       377  -29897585     
       378  -29897525     
       379  -29897533     
       380  -29897485     
       381  -29897491     
       382  -29897508     
       383  -29897556     
       384  -29897584     
       385  -29897580     
       386  -29897624     
       387  -29897563     
       388  -29897560     
       389  -29897595     
       390  -29897587     
       391  -29897571     
       392  -29897500     
       393  -29897460     
       394  -29897483     
       395  -29897516     
       396  -29897498     
       397  -29897473     
       398  -29897514     
       399  -29897507     
       400  -29897481     
       401  -29897502     
       402  -29897564     
       403  -29897594     
       404  -29897610     
       405  -29897605     
       406  -29897538     
       407  -29897523     
       408  -29897540     
       409  -29897530     
       410  -29897579     
       411  -29897664     
       412  -29897622     
       413  -29897613     
       414  -29897628     
       415  -29897562     
       416  -29897552     
       417  -29897509     
       418  -29897567     
       419  -29897544     
       420  -29897640     
       421  -29897594     
       422  -29897566     
       423  -29897507     
       424  -29897501     
       425  -29897592     
       426  -29897523     
       427  -29897580     
       428  -29897577     
       429  -29897516     
       430  -29897465     
       431  -29897407     
       432  -29897369     
       433  -29897367     
       434  -29897413     
       435  -29897450     
       436  -29897526     
       437  -29897576     
       438  -29897513     
       439  -29897520     
       440  -29897533     
       441  -29897582     
       442  -29897639     
       443  -29897607     
       444  -29897531     
       445  -29897523     
       446  -29897570     
       447  -29897600     
       448  -29897577     
       449  -29897602     
       450  -29897521     
       451  -29897484     
       452  -29897467     
       453  -29897501     
       454  -29897539     
       455  -29897564     
       456  -29897506     
       457  -29897529     
       458  -29897635     
       459  -29897602     
       460  -29897553     
       461  -29897520     
       462  -29897527     
       463  -29897584     
       464  -29897583     
       465  -29897675     
       466  -29897621     
       467  -29897509     
       468  -29897522     
       469  -29897530     
       470  -29897537     
       471  -29897520     
       472  -29897432     
       473  -29897446     
       474  -29897539     
       475  -29897561     
       476  -29897482     
       477  -29897506     
       478  -29897587     
       479  -29897625     
       480  -29897692     
       481  -29897631     
       482  -29897534     
       483  -29897475     
       484  -29897579     
       485  -29897530     
       486  -29897470     
       487  -29897514     
       488  -29897550     
       489  -29897559     
       490  -29897556     
       491  -29897596     
       492  -29897593     
       493  -29897517     
       494  -29897511     
       495  -29897486     
       496  -29897517     
       497  -29897526     
       498  -29897606     
       499  -29897477     
       500  -29897518     
       501  -29897522     
       502  -29897513     
       503  -29897461     
       504  -29897426     
       505  -29897377     
       506  -29897387     
       507  -29897383     
       508  -29897449     
       509  -29897545     
       510  -29897450     
       511  -29897401     
       512  -29897464     
       513  -29897486     
       514  -29897480     
       515  -29897454     
       516  -29897559     
       517  -29897565     
       518  -29897620     
       519  -29897657     
       520  -29897644     
       521  -29897593     
       522  -29897635     
       523  -29897609     
       524  -29897634     
       525  -29897657     
       526  -29897646     
       527  -29897563     
       528  -29897601     
       529  -29897576     
       530  -29897565     
       531  -29897592     
       532  -29897582     
       533  -29897614     
       534  -29897570     
       535  -29897676     
       536  -29897771     
       537  -29897738     
       538  -29897625     
       539  -29897563     
       540  -29897567     
       541  -29897514     
       542  -29897520     
       543  -29897637     
       544  -29897641     
       545  -29897623     
       546  -29897685     
       547  -29897604     
       548  -29897517     
       549  -29897510     
       550  -29897587     
       551  -29897618     
       552  -29897568     
       553  -29897537     
       554  -29897570     
       555  -29897593     
       556  -29897516     
       557  -29897575     
       558  -29897617     
       559  -29897615     
       560  -29897573     
       561  -29897566     
       562  -29897518     
       563  -29897512     
       564  -29897571     
       565  -29897495     
       566  -29897506     
       567  -29897423     
       568  -29897474     
       569  -29897484     
       570  -29897530     
       571  -29897589     
       572  -29897518     
       573  -29897458     
       574  -29897477     
       575  -29897536     
       576  -29897529     
       577  -29897513     
       578  -29897482     
       579  -29897520     
       580  -29897521     
       581  -29897493     
       582  -29897546     
       583  -29897585     
       584  -29897661     
       585  -29897639     
       586  -29897515     
       587  -29897456     
       588  -29897474     
       589  -29897525     
       590  -29897482     
       591  -29897536     
       592  -29897533     
       593  -29897495     
       594  -29897488     
       595  -29897503     
       596  -29897412     
       597  -29897417     
       598  -29897441     
       599  -29897492     
       600  -29897424     
       601  -29897377     
       602  -29897384     
       603  -29897428     
       604  -29897522     
       605  -29897504     
       606  -29897492     
       607  -29897554     
       608  -29897554     
       609  -29897563     
       610  -29897456     
       611  -29897456     
       612  -29897485     
       613  -29897428     
       614  -29897433     
       615  -29897437     
       616  -29897483     
       617  -29897409     
       618  -29897314     
       619  -29897367     
       620  -29897424     
       621  -29897399     
       622  -29897428     
       623  -29897489     
       624  -29897397     
       625  -29897439     
       626  -29897532     
       627  -29897523     
       628  -29897538     
       629  -29897415     
       630  -29897399     
       631  -29897363     
       632  -29897493     
       633  -29897450     
       634  -29897502     
       635  -29897432     
       636  -29897455     
       637  -29897398     
       638  -29897411     
       639  -29897446     
       640  -29897425     
       641  -29897308     
       642  -29897356     
       643  -29897396     
       644  -29897383     
       645  -29897447     
       646  -29897428     
       647  -29897382     
       648  -29897403     
       649  -29897431     
       650  -29897426     
       651  -29897390     
       652  -29897339     
       653  -29897435     
       654  -29897404     
       655  -29897450     
       656  -29897413     
       657  -29897365     
       658  -29897395     
       659  -29897391     
       660  -29897330     
       661  -29897231     
       662  -29897268     
       663  -29897351     
       664  -29897327     
       665  -29897371     
       666  -29897312     
       667  -29897254     
       668  -29897271     
       669  -29897327     
       670  -29897276     
       671  -29897292     
       672  -29897310     
       673  -29897347     
       674  -29897303     
       675  -29897286     
       676  -29897242     
       677  -29897254     
       678  -29897241     
       679  -29897299     
       680  -29897300     
       681  -29897320     
       682  -29897319     
       683  -29897353     
       684  -29897353     
       685  -29897383     
       686  -29897377     
       687  -29897404     
       688  -29897449     
       689  -29897402     
       690  -29897394     
       691  -29897331     
       692  -29897380     
       693  -29897412     
       694  -29897321     
       695  -29897287     
       696  -29897282     
       697  -29897196     
       698  -29897189     
       699  -29897323     
       700  -29897308     
       701  -29897340     
       702  -29897366     
       703  -29897334     
       704  -29897356     
       705  -29897270     
       706  -29897227     
       707  -29897246     
       708  -29897277     
       709  -29897256     
       710  -29897330     
       711  -29897381     
       712  -29897344     
       713  -29897357     
       714  -29897310     
       715  -29897246     
       716  -29897194     
       717  -29897202     
       718  -29897183     
       719  -29897179     
       720  -29897204     
       721  -29897240     
       722  -29897287     
       723  -29897278     
       724  -29897242     
       725  -29897282     
       726  -29897242     
       727  -29897260     
       728  -29897309     
       729  -29897307     
       730  -29897299     
       731  -29897273     
       732  -29897236     
       733  -29897240     
       734  -29897217     
       735  -29897213     
       736  -29897178     
       737  -29897266     
       738  -29897264     
       739  -29897203     
       740  -29897198     
       741  -29897240     
       742  -29897210     
       743  -29897251     
       744  -29897283     
       745  -29897286     
       746  -29897253     
       747  -29897239     
       748  -29897206     
       749  -29897166     
       750  -29897190     
       751  -29897145     
       752  -29897240     
       753  -29897214     
       754  -29897229     
       755  -29897200     
       756  -29897150     
       757  -29897202     
       758  -29897196     
       759  -29897126     
       760  -29897151     
       761  -29897230     
       762  -29897262     
       763  -29897277     
       764  -29897225     
       765  -29897287     
       766  -29897334     
       767  -29897272     
       768  -29897238     
       769  -29897261     
       770  -29897201     
       771  -29897261     
       772  -29897197     
       773  -29897285     
       774  -29897255     
       775  -29897304     
       776  -29897183     
       777  -29897109     
       778  -29897059     
       779  -29897042     
       780  -29897111     
       781  -29897154     
       782  -29897224     
       783  -29897247     
       784  -29897256     
       785  -29897349     
       786  -29897364     
       787  -29897260     
       788  -29897268     
       789  -29897205     
       790  -29897199     
       791  -29897241     
       792  -29897241     
       793  -29897182     
       794  -29897223     
       795  -29897325     
       796  -29897314     
       797  -29897275     
       798  -29897258     
       799  -29897238     
       800  -29897147     
       801  -29897202     
       802  -29897200     
       803  -29897233     
       804  -29897217     
       805  -29897213     
       806  -29897117     
       807  -29897197     
       808  -29897159     
       809  -29897230     
       810  -29897211     
       811  -29897144     
       812  -29897182     
       813  -29897217     
       814  -29897215     
       815  -29897194     
       816  -29897211     
       817  -29897197     
       818  -29897272     
       819  -29897284     
       820  -29897254     
       821  -29897346     
       822  -29897297     
       823  -29897317     
       824  -29897260     
       825  -29897216     
       826  -29897219     
       827  -29897117     
       828  -29897167     
       829  -29897163     
       830  -29897213     
       831  -29897239     
       832  -29897224     
       833  -29897217     
       834  -29897128     
       835  -29897110     
       836  -29897157     
       837  -29897162     
       838  -29897164     
       839  -29897195     
       840  -29897214     
       841  -29897289     
       842  -29897238     
       843  -29897260     
       844  -29897234     
       845  -29897194     
       846  -29897136     
       847  -29897183     
       848  -29897216     
       849  -29897232     
       850  -29897175     
       851  -29897180     
       852  -29897160     
       853  -29897138     
       854  -29897127     
       855  -29897204     
       856  -29897137     
       857  -29897169     
       858  -29897219     
       859  -29897147     
       860  -29897176     
       861  -29897178     
       862  -29897194     
       863  -29897136     
       864  -29897201     
       865  -29897091     
       866  -29897120     
       867  -29897117     
       868  -29897070     
       869  -29897078     
       870  -29897061     
       871  -29897124     
       872  -29897125     
       873  -29897202     
       874  -29897204     
       875  -29897226     
       876  -29897251     
       877  -29897316     
       878  -29897391     
       879  -29897260     
       880  -29897179     
       881  -29897192     
       882  -29897166     
       883  -29897242     
       884  -29897247     
       885  -29897221     
       886  -29897253     
       887  -29897196     
       888  -29897340     
       889  -29897247     
       890  -29897199     
       891  -29897199     
       892  -29897176     
       893  -29897141     
       894  -29897167     
       895  -29897215     
       896  -29897271     
       897  -29897208     
       898  -29897215     
       899  -29897207     
       900  -29897279     
       901  -29897251     
       902  -29897251     
       903  -29897262     
       904  -29897227     
       905  -29897246     
       906  -29897282     
       907  -29897255     
       908  -29897177     
       909  -29897197     
       910  -29897240     
       911  -29897199     
       912  -29897224     
       913  -29897137     
       914  -29897166     
       915  -29897213     
       916  -29897244     
       917  -29897227     
       918  -29897263     
       919  -29897302     
       920  -29897218     
       921  -29897230     
       922  -29897186     
       923  -29897226     
       924  -29897251     
       925  -29897287     
       926  -29897360     
       927  -29897318     
       928  -29897268     
       929  -29897265     
       930  -29897237     
       931  -29897251     
       932  -29897289     
       933  -29897290     
       934  -29897219     
       935  -29897223     
       936  -29897225     
       937  -29897248     
       938  -29897231     
       939  -29897301     
       940  -29897246     
       941  -29897258     
       942  -29897295     
       943  -29897262     
       944  -29897188     
       945  -29897171     
       946  -29897214     
       947  -29897124     
       948  -29897146     
       949  -29897173     
       950  -29897137     
       951  -29897260     
       952  -29897268     
       953  -29897191     
       954  -29897232     
       955  -29897184     
       956  -29897181     
       957  -29897157     
       958  -29897207     
       959  -29897206     
       960  -29897203     
       961  -29897262     
       962  -29897251     
       963  -29897196     
       964  -29897252     
       965  -29897208     
       966  -29897199     
       967  -29897155     
       968  -29897179     
       969  -29897221     
       970  -29897185     
       971  -29897141     
       972  -29897154     
       973  -29897205     
       974  -29897252     
       975  -29897158     
       976  -29897088     
       977  -29897154     
       978  -29897166     
       979  -29897270     
       980  -29897245     
       981  -29897261     
       982  -29897211     
       983  -29897244     
       984  -29897188     
       985  -29897208     
       986  -29897180     
       987  -29897203     
       988  -29897265     
       989  -29897203     
       990  -29897161     
       991  -29897207     
       992  -29897165     
       993  -29897159     
       994  -29897177     
       995  -29897141     
       996  -29897234     
       997  -29897213     
       998  -29897200     
       999  -29897234     
      1000  -29897329     
Loop time of 1500.14 on 1 procs for 1000 steps with 192000 atoms

Performance: 0.029 ns/day, 833.409 hours/ns, 0.667 timesteps/s, 127.988 katom-step/s
79.5% CPU use with 1 MPI tasks x 1 OpenMP threads

MPI task timing breakdown:
Section |  min time  |  avg time  |  max time  |%varavg| %total
---------------------------------------------------------------
Pair    | 240.88     | 240.88     | 240.88     |   0.0 | 16.06
Neigh   | 90.19      | 90.19      | 90.19      |   0.0 |  6.01
Comm    | 0.95373    | 0.95373    | 0.95373    |   0.0 |  0.06
Output  | 0.019588   | 0.019588   | 0.019588   |   0.0 |  0.00
Modify  | 1167.6     | 1167.6     | 1167.6     |   0.0 | 77.83
Other   |            | 0.4775     |            |       |  0.03

Nlocal:         192000 ave      192000 max      192000 min
Histogram: 1 0 0 0 0 0 0 0 0 0
Nghost:          82877 ave       82877 max       82877 min
Histogram: 1 0 0 0 0 0 0 0 0 0
Neighs:              0 ave           0 max           0 min
Histogram: 1 0 0 0 0 0 0 0 0 0
FullNghs:  4.15008e+07 ave 4.15008e+07 max 4.15008e+07 min
Histogram: 1 0 0 0 0 0 0 0 0 0

Total # of neighbors = 41500766
Ave neighs/atom = 216.14982
Neighbor list builds = 100
Dangerous builds not checked
write_data      final.${ibead}
write_data      final.02
System init for write_data ...
Generated 0 of 1 mixed pair_coeff terms from geometric mixing rule

Initializing PI Langevin equation thermostat...
Bead ID    |    omega    |    tau    |    c1    |    c2
    0     0.00000000e+00 1.00000000e+00 9.99750031e-01 2.23578850e-02
    1     2.46383091e+02 2.02936004e-03 8.84094302e-01 4.67308533e-01
    2     4.90393378e+02 1.01958962e-03 7.82550604e-01 6.22586984e-01
    3     7.29680909e+02 6.85231028e-04 6.94307415e-01 7.19678548e-01
    4     9.61941214e+02 5.19782282e-04 6.18183088e-01 7.86034141e-01
    5     1.18493750e+03 4.21963184e-04 5.52960477e-01 8.33207484e-01
    6     1.39652219e+03 3.58032263e-04 4.97449570e-01 8.67492896e-01
    7     1.59465761e+03 3.13546932e-04 4.50530815e-01 8.92760878e-01
    8     1.77743560e+03 2.81304144e-04 4.11182633e-01 9.11552984e-01
    9     1.94309592e+03 2.57321317e-04 3.78496688e-01 9.25602646e-01
    10     2.09004316e+03 2.39229510e-04 3.51684231e-01 9.36118690e-01
    11     2.21686214e+03 2.25544021e-04 3.30076422e-01 9.43954213e-01
    12     2.32233153e+03 2.15300871e-04 3.13120943e-01 9.49713259e-01
    13     2.40543559e+03 2.07862560e-04 3.00376739e-01 9.53820641e-01
    14     2.46537400e+03 2.02808986e-04 2.91508242e-01 9.56568317e-01
    15     2.50156951e+03 1.99874518e-04 2.86280050e-01 9.58145987e-01
    16     2.51367353e+03 1.98912068e-04 2.84552711e-01 9.58660396e-01
    17     2.50156951e+03 1.99874518e-04 2.86280050e-01 9.58145987e-01
    18     2.46537400e+03 2.02808986e-04 2.91508242e-01 9.56568317e-01
    19     2.40543559e+03 2.07862560e-04 3.00376739e-01 9.53820641e-01
    20     2.32233153e+03 2.15300871e-04 3.13120943e-01 9.49713259e-01
    21     2.21686214e+03 2.25544021e-04 3.30076422e-01 9.43954213e-01
    22     2.09004316e+03 2.39229510e-04 3.51684231e-01 9.36118690e-01
    23     1.94309592e+03 2.57321317e-04 3.78496688e-01 9.25602646e-01
    24     1.77743560e+03 2.81304144e-04 4.11182633e-01 9.11552984e-01
    25     1.59465761e+03 3.13546932e-04 4.50530815e-01 8.92760878e-01
    26     1.39652219e+03 3.58032263e-04 4.97449570e-01 8.67492896e-01
    27     1.18493750e+03 4.21963184e-04 5.52960477e-01 8.33207484e-01
    28     9.61941214e+02 5.19782282e-04 6.18183088e-01 7.86034141e-01
    29     7.29680909e+02 6.85231028e-04 6.94307415e-01 7.19678548e-01
    30     4.90393378e+02 1.01958962e-03 7.82550604e-01 6.22586984e-01
    31     2.46383091e+02 2.02936004e-03 8.84094302e-01 4.67308533e-01
PILE_L thermostat successfully initialized!

Total wall time: 0:25:29
