LAMMPS (2 Aug 2023)
Processor partition = 7
OMP_NUM_THREADS environment is not set. Defaulting to 1 thread. (src/comm.cpp:98)
  using 1 OpenMP thread(s) per MPI task
Loaded 1 plugins from /opt/deepmd-kit/lib/deepmd_lmp
clear
OMP_NUM_THREADS environment is not set. Defaulting to 1 thread. (src/comm.cpp:98)
  using 1 OpenMP thread(s) per MPI task
Loaded 1 plugins from /opt/deepmd-kit/lib/deepmd_lmp
# --------------------- VARIABLES-------------------------
variable        ibead           uloop 99 pad
variable        NSTEPS          equal 1000
variable        THERMO_FREQ     equal 1
#variable        DUMP_FREQ       equal 4000
#variable        NREPEAT         equal ${NSTEPS}/${DUMP_FREQ}
variable        TEMP            equal 300.000000
variable        TAU_T           equal 1.000000
# ---------------------- INITIALIZAITION ------------------
units           metal
boundary        p p p
atom_style      atomic
atom_modify     map yes
# --------------------- ATOM DEFINITION ------------------
read_data       /pscratch/sd/y/yifanl/Work/h2o/pimd/initial_config/conf01
Reading data file ...
  orthogonal box = (0 0 0) to (24.76926 24.76926 24.76926)
  1 by 1 by 1 MPI processor grid
  reading atoms ...
  1536 atoms
  read_data CPU = 0.005 seconds
mass            1 16.000000
mass            2 1.000000
replicate       5 5 5
Replication is creating a 5x5x5 = 125 times larger system...
  orthogonal box = (0 0 0) to (123.8463 123.8463 123.8463)
  1 by 1 by 1 MPI processor grid
  192000 atoms
  replicate CPU = 0.011 seconds
# --------------------- FORCE FIELDS ---------------------
pair_style      deepmd /pscratch/sd/y/yifanl/Work/h2o/pimd/benchmark/graph.pb
Summary of lammps deepmd module ...
  >>> Info of deepmd-kit:
  installed to:       /opt/deepmd-kit
  source:             
  source branch:      HEAD
  source commit:      5ec5eae
  source commit at:   2024-02-04 18:53:26 -0500
  support model ver.: 1.1 
  build variant:      cuda
  build with tf inc:  /opt/deepmd-kit/lib/python3.11/site-packages/tensorflow/include;/opt/deepmd-kit/include
  build with tf lib:  /opt/deepmd-kit/lib/python3.11/site-packages/tensorflow/libtensorflow_cc.so.2
  set tf intra_op_parallelism_threads: 0
  set tf inter_op_parallelism_threads: 0
  >>> Info of lammps module:
  use deepmd-kit at:  /opt/deepmd-kitpair_coeff * *
# --------------------- MD SETTINGS ----------------------
neighbor        2.0 bin
neigh_modify    every 10 delay 0 check no
timestep        0.000500
thermo          ${THERMO_FREQ}
thermo          1
thermo_style    custom step pe
#dump            1 all custom ${DUMP_FREQ} ${ibead}.xyz id type x y z
#dump_modify     1 sort id
fix 1 all pimd/langevin ensemble nvt integrator obabo temp ${TEMP} thermostat PILE_L 1234 tau ${TAU_T}
fix 1 all pimd/langevin ensemble nvt integrator obabo temp 300 thermostat PILE_L 1234 tau ${TAU_T}
fix 1 all pimd/langevin ensemble nvt integrator obabo temp 300 thermostat PILE_L 1234 tau 1
# --------------------- RUN ------------------------------
run             ${NSTEPS}
run             1000

CITE-CITE-CITE-CITE-CITE-CITE-CITE-CITE-CITE-CITE-CITE-CITE-CITE

Your simulation uses code contributions which should be cited:

- USER-DEEPMD package:

@article{Wang_ComputPhysCommun_2018_v228_p178,
  author = {Wang, Han and Zhang, Linfeng and Han, Jiequn and E, Weinan},
  doi = {10.1016/j.cpc.2018.03.016},
  url = {https://doi.org/10.1016/j.cpc.2018.03.016},
  year = 2018,
  month = {jul},
  publisher = {Elsevier {BV}},
  volume = 228,
  journal = {Comput. Phys. Commun.},
  title = {{DeePMD-kit: A deep learning package for many-body potential energy representation and molecular dynamics}},
  pages = {178--184}
}
@misc{Zeng_JChemPhys_2023_v159_p054801,
  title  = {{DeePMD-kit v2: A software package for deep potential models}},
  author =   {Jinzhe Zeng and Duo Zhang and Denghui Lu and Pinghui Mo and Zeyu Li
         and Yixiao Chen and Mari{\'a}n Rynik and Li'ang Huang and Ziyao Li and 
         Shaochen Shi and Yingze Wang and Haotian Ye and Ping Tuo and Jiabin
         Yang and Ye Ding and Yifan Li and Davide Tisi and Qiyu Zeng and Han 
         Bao and Yu Xia and Jiameng Huang and Koki Muraoka and Yibo Wang and 
         Junhan Chang and Fengbo Yuan and Sigbj{\o}rn L{\o}land Bore and Chun
         Cai and Yinnian Lin and Bo Wang and Jiayan Xu and Jia-Xin Zhu and 
         Chenxing Luo and Yuzhi Zhang and Rhys E A Goodall and Wenshuo Liang
         and Anurag Kumar Singh and Sikai Yao and Jingchao Zhang and Renata
         Wentzcovitch and Jiequn Han and Jie Liu and Weile Jia and Darrin M
         York and Weinan E and Roberto Car and Linfeng Zhang and Han Wang},
  journal =  {J. Chem. Phys.},
  volume =   159,
  issue =    5,  
  year =    2023,
  pages  =   054801,
  doi =      {10.1063/5.0155600},
}

CITE-CITE-CITE-CITE-CITE-CITE-CITE-CITE-CITE-CITE-CITE-CITE-CITE

Generated 0 of 1 mixed pair_coeff terms from geometric mixing rule

Initializing PI Langevin equation thermostat...
Bead ID    |    omega    |    tau    |    c1    |    c2
    0     0.00000000e+00 1.00000000e+00 9.99750031e-01 2.23578850e-02
    1     2.46383091e+02 2.02936004e-03 8.84094302e-01 4.67308533e-01
    2     4.90393378e+02 1.01958962e-03 7.82550604e-01 6.22586984e-01
    3     7.29680909e+02 6.85231028e-04 6.94307415e-01 7.19678548e-01
    4     9.61941214e+02 5.19782282e-04 6.18183088e-01 7.86034141e-01
    5     1.18493750e+03 4.21963184e-04 5.52960477e-01 8.33207484e-01
    6     1.39652219e+03 3.58032263e-04 4.97449570e-01 8.67492896e-01
    7     1.59465761e+03 3.13546932e-04 4.50530815e-01 8.92760878e-01
    8     1.77743560e+03 2.81304144e-04 4.11182633e-01 9.11552984e-01
    9     1.94309592e+03 2.57321317e-04 3.78496688e-01 9.25602646e-01
    10     2.09004316e+03 2.39229510e-04 3.51684231e-01 9.36118690e-01
    11     2.21686214e+03 2.25544021e-04 3.30076422e-01 9.43954213e-01
    12     2.32233153e+03 2.15300871e-04 3.13120943e-01 9.49713259e-01
    13     2.40543559e+03 2.07862560e-04 3.00376739e-01 9.53820641e-01
    14     2.46537400e+03 2.02808986e-04 2.91508242e-01 9.56568317e-01
    15     2.50156951e+03 1.99874518e-04 2.86280050e-01 9.58145987e-01
    16     2.51367353e+03 1.98912068e-04 2.84552711e-01 9.58660396e-01
    17     2.50156951e+03 1.99874518e-04 2.86280050e-01 9.58145987e-01
    18     2.46537400e+03 2.02808986e-04 2.91508242e-01 9.56568317e-01
    19     2.40543559e+03 2.07862560e-04 3.00376739e-01 9.53820641e-01
    20     2.32233153e+03 2.15300871e-04 3.13120943e-01 9.49713259e-01
    21     2.21686214e+03 2.25544021e-04 3.30076422e-01 9.43954213e-01
    22     2.09004316e+03 2.39229510e-04 3.51684231e-01 9.36118690e-01
    23     1.94309592e+03 2.57321317e-04 3.78496688e-01 9.25602646e-01
    24     1.77743560e+03 2.81304144e-04 4.11182633e-01 9.11552984e-01
    25     1.59465761e+03 3.13546932e-04 4.50530815e-01 8.92760878e-01
    26     1.39652219e+03 3.58032263e-04 4.97449570e-01 8.67492896e-01
    27     1.18493750e+03 4.21963184e-04 5.52960477e-01 8.33207484e-01
    28     9.61941214e+02 5.19782282e-04 6.18183088e-01 7.86034141e-01
    29     7.29680909e+02 6.85231028e-04 6.94307415e-01 7.19678548e-01
    30     4.90393378e+02 1.01958962e-03 7.82550604e-01 6.22586984e-01
    31     2.46383091e+02 2.02936004e-03 8.84094302e-01 4.67308533e-01
PILE_L thermostat successfully initialized!

Neighbor list info ...
  update: every = 10 steps, delay = 0 steps, check = no
  max neighbors/atom: 2000, page size: 100000
  master list distance cutoff = 8
  ghost atom cutoff = 8
  binsize = 4, bins = 31 31 31
  1 neighbor lists, perpetual/occasional/extra = 1 0 0
  (1) pair deepmd, perpetual
      attributes: full, newton on
      pair build: full/bin/atomonly
      stencil: full/bin/3d
      bin: standard
Per MPI rank memory allocation (min/avg/max) = 202 | 202 | 202 Mbytes
   Step         PotEng    
         0  -29911333     
         1  -29907966     
         2  -29905328     
         3  -29903428     
         4  -29901952     
         5  -29900812     
         6  -29899924     
         7  -29899042     
         8  -29898422     
         9  -29898096     
        10  -29897973     
        11  -29898063     
        12  -29898257     
        13  -29898434     
        14  -29898468     
        15  -29898480     
        16  -29898254     
        17  -29897958     
        18  -29897685     
        19  -29897578     
        20  -29897643     
        21  -29897965     
        22  -29898457     
        23  -29898836     
        24  -29899190     
        25  -29899324     
        26  -29899238     
        27  -29899036     
        28  -29898881     
        29  -29898789     
        30  -29898788     
        31  -29898846     
        32  -29898785     
        33  -29898747     
        34  -29898694     
        35  -29898392     
        36  -29898161     
        37  -29897914     
        38  -29897718     
        39  -29897570     
        40  -29897734     
        41  -29897910     
        42  -29898046     
        43  -29898132     
        44  -29898171     
        45  -29898202     
        46  -29898224     
        47  -29898222     
        48  -29898204     
        49  -29898279     
        50  -29898386     
        51  -29898365     
        52  -29898351     
        53  -29898274     
        54  -29898154     
        55  -29898030     
        56  -29897970     
        57  -29897936     
        58  -29897976     
        59  -29897974     
        60  -29898052     
        61  -29897996     
        62  -29898042     
        63  -29898177     
        64  -29898183     
        65  -29898338     
        66  -29898433     
        67  -29898543     
        68  -29898587     
        69  -29898731     
        70  -29898745     
        71  -29898672     
        72  -29898631     
        73  -29898568     
        74  -29898541     
        75  -29898438     
        76  -29898370     
        77  -29898267     
        78  -29898207     
        79  -29898106     
        80  -29898008     
        81  -29897946     
        82  -29897940     
        83  -29898016     
        84  -29898102     
        85  -29898189     
        86  -29898250     
        87  -29898254     
        88  -29898276     
        89  -29898320     
        90  -29898411     
        91  -29898440     
        92  -29898465     
        93  -29898447     
        94  -29898424     
        95  -29898275     
        96  -29898234     
        97  -29898141     
        98  -29898052     
        99  -29897919     
       100  -29897915     
       101  -29897866     
       102  -29897884     
       103  -29897847     
       104  -29897931     
       105  -29898053     
       106  -29898177     
       107  -29898167     
       108  -29898281     
       109  -29898323     
       110  -29898401     
       111  -29898354     
       112  -29898333     
       113  -29898350     
       114  -29898353     
       115  -29898307     
       116  -29898180     
       117  -29898070     
       118  -29898014     
       119  -29897996     
       120  -29897956     
       121  -29897876     
       122  -29897925     
       123  -29897974     
       124  -29898013     
       125  -29898000     
       126  -29898023     
       127  -29898070     
       128  -29898079     
       129  -29898170     
       130  -29898256     
       131  -29898230     
       132  -29898275     
       133  -29898252     
       134  -29898187     
       135  -29898220     
       136  -29898146     
       137  -29898156     
       138  -29898042     
       139  -29898000     
       140  -29897947     
       141  -29897924     
       142  -29897923     
       143  -29897958     
       144  -29897987     
       145  -29898023     
       146  -29898009     
       147  -29897984     
       148  -29898017     
       149  -29898102     
       150  -29898143     
       151  -29898230     
       152  -29898271     
       153  -29898262     
       154  -29898324     
       155  -29898351     
       156  -29898228     
       157  -29898188     
       158  -29898162     
       159  -29898049     
       160  -29897939     
       161  -29897949     
       162  -29897979     
       163  -29897985     
       164  -29898002     
       165  -29897935     
       166  -29897971     
       167  -29897922     
       168  -29897988     
       169  -29898092     
       170  -29898168     
       171  -29898127     
       172  -29898144     
       173  -29898204     
       174  -29898249     
       175  -29898250     
       176  -29898215     
       177  -29898143     
       178  -29898043     
       179  -29898062     
       180  -29897936     
       181  -29897897     
       182  -29897936     
       183  -29897922     
       184  -29897845     
       185  -29897811     
       186  -29897910     
       187  -29897889     
       188  -29897963     
       189  -29898002     
       190  -29897969     
       191  -29898004     
       192  -29898001     
       193  -29898007     
       194  -29897977     
       195  -29897982     
       196  -29898057     
       197  -29898067     
       198  -29897997     
       199  -29897978     
       200  -29897965     
       201  -29897953     
       202  -29897986     
       203  -29897888     
       204  -29897841     
       205  -29897787     
       206  -29897835     
       207  -29897855     
       208  -29897893     
       209  -29897857     
       210  -29897859     
       211  -29897903     
       212  -29897892     
       213  -29897870     
       214  -29897842     
       215  -29897878     
       216  -29897884     
       217  -29897892     
       218  -29897881     
       219  -29897883     
       220  -29897932     
       221  -29897902     
       222  -29897880     
       223  -29897896     
       224  -29897866     
       225  -29897832     
       226  -29897762     
       227  -29897775     
       228  -29897892     
       229  -29897862     
       230  -29897848     
       231  -29897866     
       232  -29897836     
       233  -29897814     
       234  -29897899     
       235  -29897839     
       236  -29897738     
       237  -29897698     
       238  -29897809     
       239  -29897892     
       240  -29897928     
       241  -29897914     
       242  -29897872     
       243  -29897879     
       244  -29897846     
       245  -29897848     
       246  -29897851     
       247  -29897832     
       248  -29897843     
       249  -29897930     
       250  -29897869     
       251  -29897863     
       252  -29897866     
       253  -29897839     
       254  -29897810     
       255  -29897818     
       256  -29897837     
       257  -29897841     
       258  -29897848     
       259  -29897852     
       260  -29897817     
       261  -29897883     
       262  -29897919     
       263  -29897853     
       264  -29897815     
       265  -29897744     
       266  -29897709     
       267  -29897779     
       268  -29897782     
       269  -29897802     
       270  -29897779     
       271  -29897771     
       272  -29897811     
       273  -29897790     
       274  -29897752     
       275  -29897752     
       276  -29897722     
       277  -29897697     
       278  -29897819     
       279  -29897780     
       280  -29897821     
       281  -29897870     
       282  -29897881     
       283  -29898008     
       284  -29897863     
       285  -29897801     
       286  -29897813     
       287  -29897823     
       288  -29897816     
       289  -29897775     
       290  -29897775     
       291  -29897779     
       292  -29897859     
       293  -29897752     
       294  -29897648     
       295  -29897661     
       296  -29897654     
       297  -29897753     
       298  -29897757     
       299  -29897778     
       300  -29897791     
       301  -29897803     
       302  -29897742     
       303  -29897744     
       304  -29897750     
       305  -29897747     
       306  -29897632     
       307  -29897743     
       308  -29897714     
       309  -29897704     
       310  -29897751     
       311  -29897732     
       312  -29897698     
       313  -29897702     
       314  -29897718     
       315  -29897717     
       316  -29897694     
       317  -29897668     
       318  -29897654     
       319  -29897694     
       320  -29897694     
       321  -29897753     
       322  -29897803     
       323  -29897804     
       324  -29897765     
       325  -29897717     
       326  -29897716     
       327  -29897676     
       328  -29897617     
       329  -29897695     
       330  -29897702     
       331  -29897777     
       332  -29897702     
       333  -29897655     
       334  -29897613     
       335  -29897589     
       336  -29897645     
       337  -29897589     
       338  -29897613     
       339  -29897613     
       340  -29897643     
       341  -29897698     
       342  -29897709     
       343  -29897664     
       344  -29897620     
       345  -29897641     
       346  -29897551     
       347  -29897573     
       348  -29897646     
       349  -29897631     
       350  -29897681     
       351  -29897645     
       352  -29897756     
       353  -29897673     
       354  -29897671     
       355  -29897645     
       356  -29897640     
       357  -29897593     
       358  -29897573     
       359  -29897564     
       360  -29897533     
       361  -29897572     
       362  -29897541     
       363  -29897619     
       364  -29897689     
       365  -29897695     
       366  -29897672     
       367  -29897675     
       368  -29897539     
       369  -29897526     
       370  -29897488     
       371  -29897456     
       372  -29897499     
       373  -29897476     
       374  -29897494     
       375  -29897501     
       376  -29897533     
       377  -29897524     
       378  -29897511     
       379  -29897534     
       380  -29897564     
       381  -29897530     
       382  -29897592     
       383  -29897572     
       384  -29897587     
       385  -29897480     
       386  -29897576     
       387  -29897505     
       388  -29897555     
       389  -29897548     
       390  -29897541     
       391  -29897516     
       392  -29897471     
       393  -29897425     
       394  -29897485     
       395  -29897486     
       396  -29897492     
       397  -29897576     
       398  -29897646     
       399  -29897541     
       400  -29897507     
       401  -29897524     
       402  -29897545     
       403  -29897577     
       404  -29897575     
       405  -29897505     
       406  -29897515     
       407  -29897505     
       408  -29897528     
       409  -29897529     
       410  -29897603     
       411  -29897623     
       412  -29897561     
       413  -29897480     
       414  -29897543     
       415  -29897588     
       416  -29897579     
       417  -29897589     
       418  -29897523     
       419  -29897518     
       420  -29897525     
       421  -29897576     
       422  -29897577     
       423  -29897523     
       424  -29897600     
       425  -29897628     
       426  -29897596     
       427  -29897604     
       428  -29897526     
       429  -29897539     
       430  -29897536     
       431  -29897525     
       432  -29897596     
       433  -29897543     
       434  -29897595     
       435  -29897564     
       436  -29897523     
       437  -29897517     
       438  -29897499     
       439  -29897545     
       440  -29897519     
       441  -29897592     
       442  -29897586     
       443  -29897537     
       444  -29897562     
       445  -29897524     
       446  -29897567     
       447  -29897487     
       448  -29897574     
       449  -29897527     
       450  -29897506     
       451  -29897472     
       452  -29897534     
       453  -29897635     
       454  -29897536     
       455  -29897626     
       456  -29897645     
       457  -29897655     
       458  -29897667     
       459  -29897703     
       460  -29897620     
       461  -29897595     
       462  -29897547     
       463  -29897595     
       464  -29897689     
       465  -29897715     
       466  -29897625     
       467  -29897495     
       468  -29897455     
       469  -29897550     
       470  -29897622     
       471  -29897636     
       472  -29897625     
       473  -29897562     
       474  -29897527     
       475  -29897515     
       476  -29897496     
       477  -29897503     
       478  -29897508     
       479  -29897499     
       480  -29897489     
       481  -29897480     
       482  -29897491     
       483  -29897476     
       484  -29897541     
       485  -29897489     
       486  -29897461     
       487  -29897523     
       488  -29897522     
       489  -29897517     
       490  -29897532     
       491  -29897554     
       492  -29897583     
       493  -29897581     
       494  -29897516     
       495  -29897486     
       496  -29897459     
       497  -29897527     
       498  -29897461     
       499  -29897410     
       500  -29897510     
       501  -29897484     
       502  -29897501     
       503  -29897473     
       504  -29897496     
       505  -29897456     
       506  -29897447     
       507  -29897450     
       508  -29897409     
       509  -29897439     
       510  -29897478     
       511  -29897516     
       512  -29897528     
       513  -29897569     
       514  -29897566     
       515  -29897491     
       516  -29897517     
       517  -29897492     
       518  -29897462     
       519  -29897487     
       520  -29897528     
       521  -29897557     
       522  -29897567     
       523  -29897633     
       524  -29897571     
       525  -29897554     
       526  -29897564     
       527  -29897565     
       528  -29897533     
       529  -29897596     
       530  -29897582     
       531  -29897562     
       532  -29897567     
       533  -29897479     
       534  -29897531     
       535  -29897494     
       536  -29897509     
       537  -29897555     
       538  -29897576     
       539  -29897554     
       540  -29897553     
       541  -29897569     
       542  -29897602     
       543  -29897656     
       544  -29897618     
       545  -29897667     
       546  -29897633     
       547  -29897543     
       548  -29897480     
       549  -29897514     
       550  -29897545     
       551  -29897479     
       552  -29897543     
       553  -29897520     
       554  -29897485     
       555  -29897604     
       556  -29897697     
       557  -29897669     
       558  -29897600     
       559  -29897485     
       560  -29897478     
       561  -29897537     
       562  -29897630     
       563  -29897660     
       564  -29897635     
       565  -29897629     
       566  -29897548     
       567  -29897580     
       568  -29897606     
       569  -29897580     
       570  -29897595     
       571  -29897644     
       572  -29897584     
       573  -29897606     
       574  -29897579     
       575  -29897581     
       576  -29897543     
       577  -29897586     
       578  -29897506     
       579  -29897544     
       580  -29897533     
       581  -29897545     
       582  -29897575     
       583  -29897511     
       584  -29897490     
       585  -29897520     
       586  -29897484     
       587  -29897407     
       588  -29897412     
       589  -29897469     
       590  -29897445     
       591  -29897493     
       592  -29897452     
       593  -29897538     
       594  -29897516     
       595  -29897439     
       596  -29897523     
       597  -29897427     
       598  -29897496     
       599  -29897548     
       600  -29897533     
       601  -29897544     
       602  -29897492     
       603  -29897458     
       604  -29897423     
       605  -29897439     
       606  -29897441     
       607  -29897494     
       608  -29897510     
       609  -29897483     
       610  -29897393     
       611  -29897421     
       612  -29897492     
       613  -29897441     
       614  -29897411     
       615  -29897425     
       616  -29897491     
       617  -29897494     
       618  -29897439     
       619  -29897473     
       620  -29897464     
       621  -29897504     
       622  -29897556     
       623  -29897503     
       624  -29897450     
       625  -29897500     
       626  -29897498     
       627  -29897521     
       628  -29897487     
       629  -29897525     
       630  -29897423     
       631  -29897408     
       632  -29897328     
       633  -29897347     
       634  -29897443     
       635  -29897468     
       636  -29897419     
       637  -29897403     
       638  -29897443     
       639  -29897480     
       640  -29897473     
       641  -29897441     
       642  -29897448     
       643  -29897317     
       644  -29897364     
       645  -29897341     
       646  -29897409     
       647  -29897394     
       648  -29897413     
       649  -29897387     
       650  -29897320     
       651  -29897358     
       652  -29897352     
       653  -29897285     
       654  -29897310     
       655  -29897289     
       656  -29897282     
       657  -29897305     
       658  -29897361     
       659  -29897302     
       660  -29897352     
       661  -29897390     
       662  -29897386     
       663  -29897433     
       664  -29897407     
       665  -29897322     
       666  -29897331     
       667  -29897333     
       668  -29897362     
       669  -29897311     
       670  -29897344     
       671  -29897440     
       672  -29897436     
       673  -29897371     
       674  -29897415     
       675  -29897323     
       676  -29897254     
       677  -29897279     
       678  -29897382     
       679  -29897358     
       680  -29897347     
       681  -29897364     
       682  -29897296     
       683  -29897324     
       684  -29897305     
       685  -29897238     
       686  -29897286     
       687  -29897266     
       688  -29897255     
       689  -29897267     
       690  -29897259     
       691  -29897279     
       692  -29897250     
       693  -29897252     
       694  -29897299     
       695  -29897325     
       696  -29897247     
       697  -29897311     
       698  -29897374     
       699  -29897283     
       700  -29897206     
       701  -29897263     
       702  -29897322     
       703  -29897317     
       704  -29897293     
       705  -29897341     
       706  -29897373     
       707  -29897362     
       708  -29897357     
       709  -29897361     
       710  -29897272     
       711  -29897220     
       712  -29897255     
       713  -29897289     
       714  -29897216     
       715  -29897287     
       716  -29897279     
       717  -29897261     
       718  -29897232     
       719  -29897283     
       720  -29897246     
       721  -29897292     
       722  -29897308     
       723  -29897230     
       724  -29897207     
       725  -29897213     
       726  -29897193     
       727  -29897212     
       728  -29897225     
       729  -29897204     
       730  -29897305     
       731  -29897226     
       732  -29897140     
       733  -29897163     
       734  -29897180     
       735  -29897228     
       736  -29897251     
       737  -29897248     
       738  -29897257     
       739  -29897205     
       740  -29897282     
       741  -29897315     
       742  -29897238     
       743  -29897255     
       744  -29897203     
       745  -29897247     
       746  -29897246     
       747  -29897215     
       748  -29897257     
       749  -29897296     
       750  -29897293     
       751  -29897307     
       752  -29897295     
       753  -29897233     
       754  -29897219     
       755  -29897182     
       756  -29897212     
       757  -29897286     
       758  -29897247     
       759  -29897263     
       760  -29897237     
       761  -29897208     
       762  -29897214     
       763  -29897201     
       764  -29897202     
       765  -29897254     
       766  -29897147     
       767  -29897130     
       768  -29897188     
       769  -29897267     
       770  -29897290     
       771  -29897225     
       772  -29897254     
       773  -29897218     
       774  -29897235     
       775  -29897203     
       776  -29897165     
       777  -29897172     
       778  -29897235     
       779  -29897208     
       780  -29897261     
       781  -29897317     
       782  -29897241     
       783  -29897245     
       784  -29897256     
       785  -29897234     
       786  -29897267     
       787  -29897287     
       788  -29897282     
       789  -29897286     
       790  -29897234     
       791  -29897163     
       792  -29897148     
       793  -29897181     
       794  -29897216     
       795  -29897295     
       796  -29897262     
       797  -29897231     
       798  -29897279     
       799  -29897310     
       800  -29897232     
       801  -29897239     
       802  -29897233     
       803  -29897207     
       804  -29897275     
       805  -29897333     
       806  -29897293     
       807  -29897351     
       808  -29897238     
       809  -29897279     
       810  -29897308     
       811  -29897249     
       812  -29897229     
       813  -29897192     
       814  -29897201     
       815  -29897281     
       816  -29897239     
       817  -29897191     
       818  -29897141     
       819  -29897166     
       820  -29897195     
       821  -29897155     
       822  -29897243     
       823  -29897193     
       824  -29897154     
       825  -29897092     
       826  -29897200     
       827  -29897187     
       828  -29897201     
       829  -29897201     
       830  -29897228     
       831  -29897206     
       832  -29897217     
       833  -29897199     
       834  -29897166     
       835  -29897213     
       836  -29897194     
       837  -29897220     
       838  -29897242     
       839  -29897263     
       840  -29897229     
       841  -29897213     
       842  -29897168     
       843  -29897267     
       844  -29897239     
       845  -29897241     
       846  -29897250     
       847  -29897166     
       848  -29897168     
       849  -29897214     
       850  -29897272     
       851  -29897201     
       852  -29897147     
       853  -29897202     
       854  -29897173     
       855  -29897216     
       856  -29897198     
       857  -29897161     
       858  -29897285     
       859  -29897276     
       860  -29897240     
       861  -29897187     
       862  -29897189     
       863  -29897214     
       864  -29897183     
       865  -29897243     
       866  -29897319     
       867  -29897297     
       868  -29897314     
       869  -29897286     
       870  -29897221     
       871  -29897165     
       872  -29897200     
       873  -29897236     
       874  -29897225     
       875  -29897247     
       876  -29897207     
       877  -29897213     
       878  -29897213     
       879  -29897218     
       880  -29897250     
       881  -29897190     
       882  -29897182     
       883  -29897186     
       884  -29897175     
       885  -29897228     
       886  -29897200     
       887  -29897204     
       888  -29897194     
       889  -29897209     
       890  -29897233     
       891  -29897278     
       892  -29897243     
       893  -29897238     
       894  -29897244     
       895  -29897296     
       896  -29897304     
       897  -29897247     
       898  -29897297     
       899  -29897245     
       900  -29897245     
       901  -29897221     
       902  -29897288     
       903  -29897238     
       904  -29897221     
       905  -29897241     
       906  -29897274     
       907  -29897274     
       908  -29897215     
       909  -29897187     
       910  -29897205     
       911  -29897062     
       912  -29897089     
       913  -29897195     
       914  -29897200     
       915  -29897213     
       916  -29897210     
       917  -29897168     
       918  -29897136     
       919  -29897136     
       920  -29897227     
       921  -29897238     
       922  -29897247     
       923  -29897269     
       924  -29897256     
       925  -29897257     
       926  -29897230     
       927  -29897180     
       928  -29897188     
       929  -29897187     
       930  -29897181     
       931  -29897226     
       932  -29897239     
       933  -29897227     
       934  -29897215     
       935  -29897205     
       936  -29897194     
       937  -29897189     
       938  -29897175     
       939  -29897183     
       940  -29897299     
       941  -29897166     
       942  -29897170     
       943  -29897074     
       944  -29897122     
       945  -29897159     
       946  -29897184     
       947  -29897196     
       948  -29897178     
       949  -29897165     
       950  -29897242     
       951  -29897259     
       952  -29897263     
       953  -29897271     
       954  -29897286     
       955  -29897209     
       956  -29897232     
       957  -29897294     
       958  -29897317     
       959  -29897260     
       960  -29897307     
       961  -29897292     
       962  -29897266     
       963  -29897178     
       964  -29897186     
       965  -29897222     
       966  -29897222     
       967  -29897238     
       968  -29897228     
       969  -29897210     
       970  -29897146     
       971  -29897163     
       972  -29897187     
       973  -29897186     
       974  -29897219     
       975  -29897215     
       976  -29897183     
       977  -29897219     
       978  -29897271     
       979  -29897315     
       980  -29897341     
       981  -29897290     
       982  -29897268     
       983  -29897221     
       984  -29897096     
       985  -29897071     
       986  -29897171     
       987  -29897175     
       988  -29897163     
       989  -29897132     
       990  -29897216     
       991  -29897243     
       992  -29897222     
       993  -29897201     
       994  -29897187     
       995  -29897203     
       996  -29897183     
       997  -29897160     
       998  -29897191     
       999  -29897200     
      1000  -29897237     
Loop time of 1500.36 on 1 procs for 1000 steps with 192000 atoms

Performance: 0.029 ns/day, 833.532 hours/ns, 0.667 timesteps/s, 127.970 katom-step/s
67.3% CPU use with 1 MPI tasks x 1 OpenMP threads

MPI task timing breakdown:
Section |  min time  |  avg time  |  max time  |%varavg| %total
---------------------------------------------------------------
Pair    | 240.93     | 240.93     | 240.93     |   0.0 | 16.06
Neigh   | 90.023     | 90.023     | 90.023     |   0.0 |  6.00
Comm    | 0.98423    | 0.98423    | 0.98423    |   0.0 |  0.07
Output  | 0.0195     | 0.0195     | 0.0195     |   0.0 |  0.00
Modify  | 1168       | 1168       | 1168       |   0.0 | 77.85
Other   |            | 0.4423     |            |       |  0.03

Nlocal:         192000 ave      192000 max      192000 min
Histogram: 1 0 0 0 0 0 0 0 0 0
Nghost:          82837 ave       82837 max       82837 min
Histogram: 1 0 0 0 0 0 0 0 0 0
Neighs:              0 ave           0 max           0 min
Histogram: 1 0 0 0 0 0 0 0 0 0
FullNghs:     4.15e+07 ave    4.15e+07 max    4.15e+07 min
Histogram: 1 0 0 0 0 0 0 0 0 0

Total # of neighbors = 41500026
Ave neighs/atom = 216.14597
Neighbor list builds = 100
Dangerous builds not checked
write_data      final.${ibead}
write_data      final.08
System init for write_data ...
Generated 0 of 1 mixed pair_coeff terms from geometric mixing rule

Initializing PI Langevin equation thermostat...
Bead ID    |    omega    |    tau    |    c1    |    c2
    0     0.00000000e+00 1.00000000e+00 9.99750031e-01 2.23578850e-02
    1     2.46383091e+02 2.02936004e-03 8.84094302e-01 4.67308533e-01
    2     4.90393378e+02 1.01958962e-03 7.82550604e-01 6.22586984e-01
    3     7.29680909e+02 6.85231028e-04 6.94307415e-01 7.19678548e-01
    4     9.61941214e+02 5.19782282e-04 6.18183088e-01 7.86034141e-01
    5     1.18493750e+03 4.21963184e-04 5.52960477e-01 8.33207484e-01
    6     1.39652219e+03 3.58032263e-04 4.97449570e-01 8.67492896e-01
    7     1.59465761e+03 3.13546932e-04 4.50530815e-01 8.92760878e-01
    8     1.77743560e+03 2.81304144e-04 4.11182633e-01 9.11552984e-01
    9     1.94309592e+03 2.57321317e-04 3.78496688e-01 9.25602646e-01
    10     2.09004316e+03 2.39229510e-04 3.51684231e-01 9.36118690e-01
    11     2.21686214e+03 2.25544021e-04 3.30076422e-01 9.43954213e-01
    12     2.32233153e+03 2.15300871e-04 3.13120943e-01 9.49713259e-01
    13     2.40543559e+03 2.07862560e-04 3.00376739e-01 9.53820641e-01
    14     2.46537400e+03 2.02808986e-04 2.91508242e-01 9.56568317e-01
    15     2.50156951e+03 1.99874518e-04 2.86280050e-01 9.58145987e-01
    16     2.51367353e+03 1.98912068e-04 2.84552711e-01 9.58660396e-01
    17     2.50156951e+03 1.99874518e-04 2.86280050e-01 9.58145987e-01
    18     2.46537400e+03 2.02808986e-04 2.91508242e-01 9.56568317e-01
    19     2.40543559e+03 2.07862560e-04 3.00376739e-01 9.53820641e-01
    20     2.32233153e+03 2.15300871e-04 3.13120943e-01 9.49713259e-01
    21     2.21686214e+03 2.25544021e-04 3.30076422e-01 9.43954213e-01
    22     2.09004316e+03 2.39229510e-04 3.51684231e-01 9.36118690e-01
    23     1.94309592e+03 2.57321317e-04 3.78496688e-01 9.25602646e-01
    24     1.77743560e+03 2.81304144e-04 4.11182633e-01 9.11552984e-01
    25     1.59465761e+03 3.13546932e-04 4.50530815e-01 8.92760878e-01
    26     1.39652219e+03 3.58032263e-04 4.97449570e-01 8.67492896e-01
    27     1.18493750e+03 4.21963184e-04 5.52960477e-01 8.33207484e-01
    28     9.61941214e+02 5.19782282e-04 6.18183088e-01 7.86034141e-01
    29     7.29680909e+02 6.85231028e-04 6.94307415e-01 7.19678548e-01
    30     4.90393378e+02 1.01958962e-03 7.82550604e-01 6.22586984e-01
    31     2.46383091e+02 2.02936004e-03 8.84094302e-01 4.67308533e-01
PILE_L thermostat successfully initialized!

Total wall time: 0:25:29
