384
# CELL(abcABC): 15.539540 15.539540 15.539540 90.0 90.0 90.0 Traj: positions{angstrom} cell{angstrom} Step: 8000 Bead: 0
O       7.298090000000000     -2.380490000000000      8.498160000000000
O      12.806200000000000      5.751620000000000      9.066950000000000
O       7.465430000000000     10.933700000000000      5.007580000000000
O       7.251850000000000     -3.593380000000000     13.478800000000000
O      17.752700000000001     13.100500000000000     16.689399999999999
O       0.546973000000000     -5.414770000000000      3.795610000000000
O      15.164199999999999      3.792920000000000      1.960440000000000
O      -1.464410000000000     16.965199999999999     14.639099999999999
O       0.641849000000000      1.521890000000000      5.950220000000000
O       3.261570000000000     11.819900000000001      3.056310000000000
O      13.213400000000000      0.695173000000000      4.507130000000000
O       2.377760000000000     12.573900000000000      8.629160000000001
O      13.741500000000000      5.364860000000000     -2.046550000000000
O      11.140200000000000      0.388610000000000      2.301060000000000
O      12.693700000000000      6.815160000000000      2.237480000000000
O       5.188390000000000     -0.765486000000000     16.738600000000002
O       8.802360000000000     17.103899999999999     15.949800000000000
O       9.346410000000001      5.581280000000000      6.172830000000000
O      10.830900000000000      1.434610000000000     11.425700000000001
O      17.190999999999999     11.300800000000001     -2.770730000000000
O       1.145760000000000     19.968100000000000     10.789700000000000
O      12.347400000000000     -4.431170000000000      3.826440000000000
O      11.638299999999999     13.047400000000000     10.178300000000000
O       2.060320000000000     15.319599999999999      2.361180000000000
O      10.110700000000000      8.220090000000001      6.079610000000000
O      -8.008789999999999      9.261559999999999      7.036050000000000
O       2.651420000000000      9.488680000000000      5.513390000000000
O       4.499210000000000      4.791330000000000     13.873900000000001
O      24.671299999999999     14.501500000000000     -0.262087000000000
O       8.454850000000000      7.000590000000000     10.460000000000001
O       4.478050000000000      6.512840000000000      8.038000000000000
O      -6.493260000000000     18.509799999999998      9.153400000000000
O       3.830720000000000      7.505300000000000     -2.327940000000000
O       9.468030000000001      6.144490000000000     -0.686423000000000
O       6.576650000000000      2.809970000000000     10.640100000000000
O       8.143409999999999     17.179300000000001      7.032220000000000
O       1.835460000000000     15.993900000000000     -3.920650000000000
O       8.062139999999999      8.539980000000000     15.203500000000000
O       7.231420000000000     15.662200000000000      4.728710000000000
O      15.275900000000000     12.770799999999999     15.900300000000000
O       2.142120000000000      7.924720000000000      7.838410000000000
O      14.312500000000000     21.227699999999999     -4.470480000000000
O      -5.491920000000000     11.882600000000000      4.910400000000000
O      11.263900000000000      9.734299999999999     14.901500000000000
O      16.046399999999998     -1.035540000000000      9.803050000000001
O      14.195000000000000     11.093900000000000      9.285930000000000
O       6.012220000000000      1.699950000000000     15.830600000000000
O       9.235220000000000     14.244600000000000      3.429420000000000
O       8.222790000000000      2.219090000000000     18.529499999999999
O       4.074060000000000     14.720900000000000     12.251799999999999
O       2.408810000000000     17.502700000000001     16.235600000000002
O       9.366980000000000     -1.097580000000000     10.546200000000001
O      11.033899999999999     11.336499999999999      1.560710000000000
O       4.934370000000000      4.175000000000000      0.981704000000000
O       9.959370000000000      9.126200000000001     10.807399999999999
O      16.225600000000000      8.043220000000000      0.111451000000000
O      -2.227470000000000      0.281757000000000     11.997500000000000
O       5.633100000000000      2.379820000000000      7.820650000000000
O       1.452790000000000      8.747730000000001     13.323300000000000
O      14.263400000000001     10.062500000000000      0.375526000000000
O       9.674759999999999      2.911260000000000     13.245200000000001
O       4.486140000000000      4.372170000000000      6.450380000000000
O       7.354550000000000      9.051399999999999     17.877300000000002
O       4.931980000000000      9.868950000000000      1.589820000000000
O      17.965800000000002      4.533090000000000      2.270360000000000
O       2.131640000000000     19.315999999999999      5.146850000000000
O      -0.570674000000000      1.574640000000000      8.184590000000000
O      -3.537660000000000      7.018490000000000     15.151400000000001
O      14.245699999999999     12.018900000000000      6.548970000000000
O       8.703150000000001      5.278370000000000     12.439700000000000
O      14.422300000000000      9.423310000000001      6.154120000000000
O       3.524670000000000     12.253399999999999      6.004090000000000
O       6.191140000000000     12.224900000000000     16.020600000000002
O      -0.380691000000000      8.194839999999999     11.563100000000000
O      -1.483510000000000      4.054030000000000      7.486800000000000
O      18.343299999999999     10.612600000000000     -5.235380000000000
O       3.800970000000000      0.355973000000000      7.752560000000000
O       9.903980000000001      2.948260000000000      5.118960000000000
O       0.865447000000000     -2.651240000000000      4.737390000000000
O      12.484100000000000      8.941640000000000     -3.697110000000000
O      11.188200000000000      3.358370000000000      2.179310000000000
O       9.059650000000000     -0.560475000000000      7.698420000000000
O       4.699690000000000     -1.442650000000000      9.779330000000000
O      11.566700000000001     10.434300000000000      8.662540000000000
O       5.596450000000000      8.646400000000000     -0.654599000000000
O      13.180300000000001      4.483090000000000     19.194299999999998
O       4.851240000000000     10.856299999999999     13.517400000000000
O      10.944699999999999     13.054399999999999      7.055920000000000
O       0.998969000000000     16.584399999999999     -1.551510000000000
O       5.915490000000000      5.265780000000000     11.774699999999999
O       3.847150000000000      7.599830000000000      4.387910000000000
O      -2.186060000000000     14.941000000000001      1.310350000000000
O      13.905500000000000     -6.506620000000000      2.890470000000000
O       5.257590000000000      9.890710000000000     -4.512390000000000
O      18.865400000000001     12.876799999999999     14.314200000000000
O       0.666294000000000      6.032440000000000      6.641870000000000
O       6.874140000000000      4.745990000000000      2.671530000000000
O      14.338200000000001     -2.457140000000000     18.622499999999999
O      11.644700000000000     13.565899999999999     -0.270045000000000
O       0.166492000000000      5.343480000000000     15.274100000000001
O       1.762900000000000     17.656800000000000      9.410209999999999
O      -6.197120000000000      5.356690000000000      2.120250000000000
O       6.029090000000000     13.336100000000000      6.019580000000000
O      13.476300000000000     15.051900000000000      9.235260000000000
O       2.339570000000000     15.291900000000000      5.292750000000000
O       6.859610000000000     19.212399999999999     20.594999999999999
O       5.876880000000000      7.346410000000000     -5.321630000000000
O      10.494500000000000      7.784230000000000     18.845099999999999
O      10.037500000000000      5.429700000000000      8.747249999999999
O       9.279470000000000     10.246900000000000     13.184400000000000
O       6.785210000000000      6.973960000000000      6.037150000000000
O      -3.021240000000000      8.248989999999999      7.458640000000000
O       1.767390000000000      7.084940000000000      2.564080000000000
O       7.432390000000000     -4.815660000000000      9.489810000000000
O      15.190700000000000      6.834970000000000      4.190030000000000
O       2.194600000000000      7.052040000000000     10.479699999999999
O       0.538240000000000      9.236689999999999      9.407150000000000
O      11.847600000000000     18.659500000000001     15.017400000000000
O       8.704820000000000     -2.928790000000000      1.761940000000000
O      14.984700000000000     12.358599999999999     11.503000000000000
O       5.960980000000000      0.852855000000000     12.992000000000001
O      12.612700000000000     -2.228270000000000     -2.833840000000000
O       0.057932000000000      1.323430000000000      3.226390000000000
O      12.588300000000000      3.041330000000000      5.596410000000000
O       6.503230000000000      7.009930000000000      3.575230000000000
O      13.059900000000001     -1.023820000000000      6.793610000000000
O       7.909750000000000     -1.132670000000000     12.839900000000000
O       1.818030000000000     19.352300000000000     -1.640320000000000
H       6.624740000000000     -1.920640000000000      9.241190000000000
H       7.515580000000000     -3.333050000000000      8.697900000000001
H      11.952999999999999      5.759150000000000      9.220610000000001
H      -2.165630000000000      5.624810000000000      9.945230000000000
H       8.279380000000000     11.137300000000000      4.941290000000000
H       6.868300000000000     11.757199999999999      5.343940000000000
H       6.362570000000000     -4.058360000000000     13.280400000000000
H       7.494130000000000     -2.666110000000000     13.160100000000000
H      18.209800000000001     13.198800000000000     15.865600000000001
H      16.676200000000001     13.141100000000000     16.242400000000000
H       0.313919000000000     -4.489840000000000      4.150990000000000
H       1.316440000000000     -5.715580000000000      4.412200000000000
H      15.936000000000000      4.373050000000000      2.139970000000000
H      15.478000000000000      3.003510000000000      2.361350000000000
H      -1.642700000000000     16.734800000000000     13.711600000000001
H      -1.786430000000000     17.921600000000002     14.876899999999999
H       1.130410000000000      0.679923000000000      6.039650000000000
H      -0.044353300000000      1.641170000000000      6.789400000000000
H       2.533260000000000     11.361900000000000      3.252530000000000
H       3.075230000000000     12.157800000000000      2.240290000000000
H      14.182100000000000      0.826866000000000      3.986290000000000
H      12.814600000000000      0.790277000000000      3.604920000000000
H       2.382930000000000     12.401800000000000      7.668370000000000
H       2.769190000000000     11.832599999999999      8.996869999999999
H      13.251600000000000      5.992910000000000     -1.584810000000000
H      14.619199999999999      5.648000000000000     -1.632310000000000
H      10.385500000000000      0.064137800000000      2.727400000000000
H      11.095599999999999      1.394320000000000      2.247660000000000
H      11.871499999999999      7.371700000000000      2.545950000000000
H      12.795999999999999      5.792950000000000      2.873460000000000
H       5.555160000000000     -1.564720000000000     16.904499999999999
H       4.321370000000000     -0.866811000000000     16.521699999999999
H       9.088050000000001     16.142299999999999     15.860799999999999
H       8.988730000000000     17.659300000000002     15.331300000000001
H       8.352990000000000      5.686750000000000      5.998340000000000
H       9.473560000000001      6.598230000000000      6.118070000000000
H      10.509800000000000      0.403633000000000     11.160900000000000
H      10.377100000000000      1.900030000000000     12.167100000000000
H      16.282399999999999     11.481299999999999     -3.171120000000000
H      17.584900000000001     11.831799999999999     -1.944840000000000
H      16.770399999999999     19.729700000000001     11.793699999999999
H       1.611690000000000     20.852699999999999     10.768400000000000
H      12.728100000000000     -5.394740000000000      3.792150000000000
H      11.924600000000000     -4.303100000000000      2.866540000000000
H      11.755200000000000     12.356000000000000      9.487310000000001
H      11.837600000000000     12.818199999999999     11.149300000000000
H       2.689830000000000     15.014900000000001      2.964410000000000
H       2.122050000000000     14.495500000000000      1.770690000000000
H      10.887000000000000      8.064190000000000      6.622450000000000
H       9.387380000000000      8.768470000000001      6.682410000000000
H       7.596320000000000     10.003399999999999      6.360930000000000
H      -8.075500000000000      9.642980000000000      7.891940000000000
H       3.034470000000000     10.370699999999999      5.734060000000000
H       3.306030000000000      8.843520000000000      5.094290000000000
H       4.646990000000000      4.571200000000000     14.701400000000000
H       3.493330000000000      4.481630000000000     13.924500000000000
H      25.697199999999999     14.365500000000001     -0.316303000000000
H      24.284199999999998     14.440600000000000     -1.178230000000000
H       8.881830000000001      6.520180000000000      9.737310000000001
H       7.500460000000000      7.262460000000000     10.085100000000001
H       4.360320000000000      5.877820000000000      7.466990000000000
H       3.668650000000000      7.141310000000000      7.967070000000000
H      -6.783460000000000     17.736000000000001      8.536670000000001
H      -5.623500000000000     18.132200000000001      9.738310000000000
H       3.760250000000000      6.696960000000000     -2.020080000000000
H       4.656360000000000      7.924510000000000     -1.693520000000000
H       9.231070000000001      5.670450000000000     14.130699999999999
H       8.883150000000001      7.023110000000000     -0.577792000000000
H       7.653080000000000      2.769430000000000     10.246499999999999
H       6.005260000000000      2.610050000000000      9.840080000000000
H       8.566970000000000     16.312799999999999      6.912220000000000
H       8.801399999999999     17.593699999999998      6.587770000000000
H       1.254740000000000     15.155400000000000     -4.388020000000000
H       1.467730000000000      0.454257000000000     -3.023100000000000
H       8.260809999999999     24.497299999999999     16.027100000000001
H       8.401830000000000      9.447559999999999     14.790200000000000
H       7.352570000000000     16.383199999999999      5.419530000000000
H       7.396260000000000     16.198399999999999      3.907950000000000
H      15.078700000000000     11.851800000000001     15.566100000000000
H      14.591500000000000     13.093700000000000     16.509000000000000
H       1.417630000000000      8.368940000000000      8.434860000000000
H       2.091310000000000      8.442250000000000      6.977830000000000
H      14.285600000000001      5.537440000000000     -3.542810000000000
H      15.236300000000000     20.897700000000000     11.026400000000001
H       9.893430000000000     12.449400000000001      4.258630000000000
H      -4.449880000000000     11.586200000000000      4.947170000000000
H      11.419800000000000      8.828180000000000     15.066300000000000
H      10.650100000000000      9.971510000000000     14.150600000000001
H      15.140200000000000     -0.580697000000000      9.368180000000001
H      16.472899999999999     -1.523970000000000      9.037520000000001
H      13.251400000000000     10.824100000000000      9.388299999999999
H      14.378100000000000     11.764099999999999     10.080000000000000
H       6.844260000000000      2.128550000000000     16.047499999999999
H       5.865680000000000      0.839603000000000     16.424800000000001
H       8.458489999999999     14.646100000000001      3.895060000000000
H       8.739509999999999     13.582100000000001      2.908650000000000
H       8.991580000000001      2.260880000000000     19.295400000000001
H       8.557570000000000      2.172380000000000     17.606800000000000
H       3.634780000000000     15.376500000000000     11.738500000000000
H       4.931270000000000     15.350700000000000     12.762900000000000
H       2.347680000000000     16.624700000000001     17.011800000000001
H       2.566760000000000     18.342700000000001     16.663100000000000
H      10.147000000000000     -1.602230000000000     10.419100000000000
H       9.280360000000000     -0.965921000000000      9.740040000000000
H      11.066400000000000     -4.805430000000000      0.866446000000000
H      10.110900000000001     11.603000000000000      1.770110000000000
H       4.781290000000000      3.134780000000000      0.735261000000000
H       3.986450000000000      4.220250000000000      1.343190000000000
H      10.885400000000001      8.909940000000001     11.235099999999999
H       9.433550000000000      8.334270000000000     10.647500000000001
H      16.693000000000001      8.407790000000000     -0.904376000000000
H      15.356100000000000      8.773990000000000      0.022917300000000
H      -3.202350000000000      1.039840000000000     11.811199999999999
H      -1.652680000000000      0.345165000000000     11.013800000000000
H       5.026790000000000      1.730420000000000      7.887380000000000
H       6.510840000000000      1.919480000000000      7.234140000000000
H       2.340930000000000      8.402870000000000     13.452500000000001
H       1.489210000000000      9.821730000000001     13.149300000000000
H      14.163399999999999      9.689990000000000      1.414440000000000
H      13.349900000000000     10.174400000000000      0.122544000000000
H       9.484140000000000      3.875630000000000     -2.655150000000000
H      10.318300000000001      3.121520000000000     13.901500000000000
H       3.509510000000000      3.920300000000000      5.752590000000000
H       4.769190000000000      3.580720000000000      7.036060000000000
H       7.668610000000000      9.883170000000000     18.282699999999998
H       7.179150000000000      8.279450000000001     18.484400000000001
H       5.798960000000000      9.486100000000000      2.135070000000000
H       4.384890000000000     10.547800000000001      1.984670000000000
H      18.024600000000000      4.077350000000000      3.134010000000000
H       2.513450000000000      5.554890000000000      2.391280000000000
H       1.518360000000000     18.612700000000000      5.512460000000000
H       1.910910000000000     20.025600000000001      5.627350000000000
H      -1.158340000000000      1.209380000000000      8.713800000000001
H       0.283009000000000      1.897370000000000      8.660620000000000
H      -4.434910000000000      6.689980000000000     15.005599999999999
H      -3.314570000000000     22.508500000000002     16.186299999999999
H      14.450699999999999     11.798700000000000      7.574170000000000
H      13.861000000000001     12.828600000000000      6.653470000000000
H       8.714300000000000      6.314960000000000     12.276100000000000
H       7.744250000000000      5.150570000000000     12.321899999999999
H      -0.366025000000000      9.308199999999999      5.433350000000000
H      -1.433730000000000     10.349800000000000      6.007910000000000
H       3.082830000000000     12.297200000000000      5.095380000000000
H       4.444880000000000     12.733000000000001      6.135340000000000
H       5.360420000000000     11.657600000000000     16.019700000000000
H       6.434630000000000     12.609600000000000     15.087199999999999
H      -0.622957000000000      7.163770000000000     11.547800000000001
H       0.444144000000000      8.054819999999999     11.990300000000000
H      -1.360120000000000      3.225870000000000      8.013970000000000
H      -1.995180000000000      4.812120000000000      8.014210000000000
H      17.677199999999999     10.031000000000001     -5.627950000000000
H      17.919699999999999     10.827999999999999     -4.413070000000000
H       4.187430000000000     -0.374298000000000      8.403990000000000
H       3.137490000000000      0.704296000000000      8.367039999999999
H       9.849100000000000      3.961560000000000      5.194460000000000
H      10.978899999999999      2.836340000000000      5.188360000000000
H       0.436505000000000     -2.987780000000000      5.430210000000000
H       0.003246850000000     -2.488140000000000      4.238610000000000
H      13.233499999999999      8.360569999999999     -3.818210000000000
H      12.308600000000000      9.224360000000001     12.757899999999999
H      11.917000000000000      3.943620000000000      2.640680000000000
H      10.413300000000000      3.943580000000000      2.110690000000000
H      10.012000000000000     -0.881766000000000      7.298430000000000
H       8.575600000000000     -1.345320000000000      7.931050000000000
H       3.906450000000000     -1.768500000000000      9.403430000000000
H       4.339760000000000     -1.084790000000000     10.614400000000000
H      10.865600000000001     -5.327830000000000      9.322820000000000
H      11.688499999999999      9.659010000000000      8.254099999999999
H       6.571830000000000      8.423500000000001     -0.557885000000000
H       5.236550000000000      9.221620000000000     -0.004676530000000
H      12.934600000000000      4.208600000000000     20.199400000000001
H      14.089300000000000      4.325450000000000     18.719899999999999
H       4.703410000000000     10.252100000000000     12.743800000000000
H       5.056990000000000     10.100600000000000     14.230700000000001
H      11.524300000000000     12.454499999999999      7.556850000000000
H      10.587400000000001     -2.905770000000000      6.195290000000000
H       1.694880000000000     16.864100000000001     -0.838516000000000
H       0.227301000000000     16.453199999999999     -1.026410000000000
H       6.070830000000000      4.359790000000000     11.500900000000000
H       5.205080000000000      5.289850000000000     12.507899999999999
H       4.634350000000000      7.564390000000000      3.937260000000000
H       3.142710000000000      7.491820000000000      3.584300000000000
H      -1.620490000000000     15.683600000000000      0.955966000000000
H      -2.803020000000000     15.465000000000000      1.826920000000000
H      13.639900000000001     -7.369200000000000      2.643700000000000
H      14.742100000000001     -6.397890000000000      3.183600000000000
H       5.395430000000000      9.010600000000000     -4.661670000000000
H       4.469660000000000      9.936249999999999     -4.988270000000000
H      19.495699999999999     12.196999999999999     14.219700000000000
H      19.157599999999999     13.827900000000000     13.879500000000000
H       0.226663000000000      5.442200000000000      7.292810000000000
H       1.139960000000000      6.686200000000000      7.256650000000000
H       6.129420000000000      4.550850000000000      1.967850000000000
H       6.947570000000000      4.027110000000000      3.140560000000000
H      13.831099999999999     -3.183730000000000     18.763000000000002
H      14.047900000000000     -1.633740000000000     18.089500000000001
H      11.574600000000000     12.769900000000000      0.265416000000000
H      12.249000000000001     14.139699999999999      0.182800000000000
H      -0.407421000000000      4.990890000000000     16.041300000000000
H       0.263178000000000      6.352550000000000     15.378800000000000
H       1.721880000000000     18.596399999999999      9.759990000000000
H       1.835420000000000     16.967700000000001     10.337100000000000
H      -7.115030000000000      5.359780000000000      2.200190000000000
H      -6.115270000000000      5.596860000000000      1.188180000000000
H       6.083620000000000     14.221800000000000      5.806760000000000
H       6.587310000000000     13.330299999999999      6.867850000000000
H      12.968299999999999     14.611400000000000      9.744730000000001
H      13.295000000000000     14.787699999999999      8.356410000000000
H       3.096840000000000     15.496400000000000      5.872520000000000
H       1.995150000000000     14.296700000000000      5.383030000000000
H       6.550830000000000     18.190899999999999      4.902250000000000
H       6.010250000000000     19.386600000000001     20.903600000000001
H       5.705200000000000      6.604100000000000     -4.805780000000000
H       5.355050000000000      7.150470000000000     -6.008080000000000
H      10.065700000000000      6.820900000000000     18.580600000000000
H      10.307399999999999      7.810760000000000     19.853100000000001
H      10.063599999999999      5.586300000000000      7.769960000000000
H       9.492340000000000      4.599440000000000      8.857830000000000
H       9.412419999999999      9.965420000000000     12.131399999999999
H       8.474940000000000     10.756399999999999     13.070900000000000
H       7.046300000000000      7.840060000000000      6.138430000000000
H       5.858350000000000      6.735480000000000      6.377110000000000
H      -2.833310000000000      7.458420000000000      8.097250000000001
H      -2.092540000000000      8.572400000000000      7.157060000000000
H       1.545740000000000      7.651350000000000      1.786620000000000
H       1.065360000000000      7.240560000000000      3.272560000000000
H       8.314990000000000     -5.166740000000000      9.901479999999999
H       6.498430000000000     -4.836710000000000      9.926460000000001
H      15.402799999999999      6.622990000000000      5.072840000000000
H      14.600000000000000      6.003660000000000      3.963250000000000
H       2.666360000000000      7.378420000000000     11.206400000000000
H       2.804260000000000      6.947240000000000      9.747470000000000
H      -0.306051000000000      9.707979999999999      9.223420000000001
H       0.261900000000000      8.718930000000000     10.161400000000000
H      11.648899999999999     18.749900000000000     16.151599999999998
H      12.411799999999999     19.315600000000000     15.128600000000000
H       8.062820000000000     -3.621250000000000      1.396550000000000
H       8.668049999999999     -2.315290000000000      0.990565000000000
H      14.320700000000000     12.664400000000001     12.267899999999999
H      15.384300000000000     13.240500000000001     11.345200000000000
H       5.875640000000000      1.320510000000000     13.742100000000001
H       6.310030000000000      1.419130000000000     12.336600000000001
H      12.908899999999999     -1.254180000000000     -2.980940000000000
H      12.335000000000001     -2.339040000000000     -1.870310000000000
H       0.361517000000000      1.609590000000000      4.240870000000000
H       0.562019000000000      0.723318000000000      2.938170000000000
H      13.229200000000001      3.432970000000000      6.416210000000000
H      12.974700000000000      2.336210000000000      5.099670000000000
H       6.815570000000000      7.069290000000000      4.648400000000000
H       6.586980000000000      6.088180000000000      3.400920000000000
H      13.057300000000000     -0.633756000000000      5.985270000000000
H      12.024900000000001     -1.548200000000000      6.857340000000000
H       8.517530000000001     -0.884932000000000     12.074600000000000
H       7.290620000000000     -0.372868000000000     12.976200000000000
H       1.300010000000000     19.858000000000001     -0.875032000000000
H       1.471600000000000     18.503599999999999     -1.761750000000000
