LAMMPS (2 Aug 2023)
Processor partition = 4
OMP_NUM_THREADS environment is not set. Defaulting to 1 thread. (src/comm.cpp:98)
  using 1 OpenMP thread(s) per MPI task
Loaded 1 plugins from /opt/deepmd-kit/lib/deepmd_lmp
clear
OMP_NUM_THREADS environment is not set. Defaulting to 1 thread. (src/comm.cpp:98)
  using 1 OpenMP thread(s) per MPI task
Loaded 1 plugins from /opt/deepmd-kit/lib/deepmd_lmp
# --------------------- VARIABLES-------------------------
variable        ibead           uloop 99 pad
variable        NSTEPS          equal 1000
variable        THERMO_FREQ     equal 1
#variable        DUMP_FREQ       equal 4000
#variable        NREPEAT         equal ${NSTEPS}/${DUMP_FREQ}
variable        TEMP            equal 300.000000
variable        TAU_T           equal 1.000000
# ---------------------- INITIALIZAITION ------------------
units           metal
boundary        p p p
atom_style      atomic
atom_modify     map yes
# --------------------- ATOM DEFINITION ------------------
read_data       /pscratch/sd/y/yifanl/Work/h2o/pimd/initial_config/conf01
Reading data file ...
  orthogonal box = (0 0 0) to (24.76926 24.76926 24.76926)
  1 by 1 by 1 MPI processor grid
  reading atoms ...
  1536 atoms
  read_data CPU = 0.004 seconds
mass            1 16.000000
mass            2 1.000000
replicate       2 2 2
Replication is creating a 2x2x2 = 8 times larger system...
  orthogonal box = (0 0 0) to (49.53852 49.53852 49.53852)
  1 by 1 by 1 MPI processor grid
  12288 atoms
  replicate CPU = 0.001 seconds
# --------------------- FORCE FIELDS ---------------------
pair_style      deepmd /pscratch/sd/y/yifanl/Work/h2o/pimd/benchmark/graph.pb
Summary of lammps deepmd module ...
  >>> Info of deepmd-kit:
  installed to:       /opt/deepmd-kit
  source:             
  source branch:      HEAD
  source commit:      5ec5eae
  source commit at:   2024-02-04 18:53:26 -0500
  support model ver.: 1.1 
  build variant:      cuda
  build with tf inc:  /opt/deepmd-kit/lib/python3.11/site-packages/tensorflow/include;/opt/deepmd-kit/include
  build with tf lib:  /opt/deepmd-kit/lib/python3.11/site-packages/tensorflow/libtensorflow_cc.so.2
  set tf intra_op_parallelism_threads: 0
  set tf inter_op_parallelism_threads: 0
  >>> Info of lammps module:
  use deepmd-kit at:  /opt/deepmd-kitpair_coeff * *
# --------------------- MD SETTINGS ----------------------
neighbor        2.0 bin
neigh_modify    every 10 delay 0 check no
timestep        0.000500
thermo          ${THERMO_FREQ}
thermo          1
thermo_style    custom step pe
#dump            1 all custom ${DUMP_FREQ} ${ibead}.xyz id type x y z
#dump_modify     1 sort id
fix 1 all pimd/langevin ensemble nvt integrator obabo temp ${TEMP} thermostat PILE_L 1234 tau ${TAU_T}
fix 1 all pimd/langevin ensemble nvt integrator obabo temp 300 thermostat PILE_L 1234 tau ${TAU_T}
fix 1 all pimd/langevin ensemble nvt integrator obabo temp 300 thermostat PILE_L 1234 tau 1
# --------------------- RUN ------------------------------
run             ${NSTEPS}
run             1000

CITE-CITE-CITE-CITE-CITE-CITE-CITE-CITE-CITE-CITE-CITE-CITE-CITE

Your simulation uses code contributions which should be cited:

- USER-DEEPMD package:

@article{Wang_ComputPhysCommun_2018_v228_p178,
  author = {Wang, Han and Zhang, Linfeng and Han, Jiequn and E, Weinan},
  doi = {10.1016/j.cpc.2018.03.016},
  url = {https://doi.org/10.1016/j.cpc.2018.03.016},
  year = 2018,
  month = {jul},
  publisher = {Elsevier {BV}},
  volume = 228,
  journal = {Comput. Phys. Commun.},
  title = {{DeePMD-kit: A deep learning package for many-body potential energy representation and molecular dynamics}},
  pages = {178--184}
}
@misc{Zeng_JChemPhys_2023_v159_p054801,
  title  = {{DeePMD-kit v2: A software package for deep potential models}},
  author =   {Jinzhe Zeng and Duo Zhang and Denghui Lu and Pinghui Mo and Zeyu Li
         and Yixiao Chen and Mari{\'a}n Rynik and Li'ang Huang and Ziyao Li and 
         Shaochen Shi and Yingze Wang and Haotian Ye and Ping Tuo and Jiabin
         Yang and Ye Ding and Yifan Li and Davide Tisi and Qiyu Zeng and Han 
         Bao and Yu Xia and Jiameng Huang and Koki Muraoka and Yibo Wang and 
         Junhan Chang and Fengbo Yuan and Sigbj{\o}rn L{\o}land Bore and Chun
         Cai and Yinnian Lin and Bo Wang and Jiayan Xu and Jia-Xin Zhu and 
         Chenxing Luo and Yuzhi Zhang and Rhys E A Goodall and Wenshuo Liang
         and Anurag Kumar Singh and Sikai Yao and Jingchao Zhang and Renata
         Wentzcovitch and Jiequn Han and Jie Liu and Weile Jia and Darrin M
         York and Weinan E and Roberto Car and Linfeng Zhang and Han Wang},
  journal =  {J. Chem. Phys.},
  volume =   159,
  issue =    5,  
  year =    2023,
  pages  =   054801,
  doi =      {10.1063/5.0155600},
}

CITE-CITE-CITE-CITE-CITE-CITE-CITE-CITE-CITE-CITE-CITE-CITE-CITE

Generated 0 of 1 mixed pair_coeff terms from geometric mixing rule

Initializing PI Langevin equation thermostat...
Bead ID    |    omega    |    tau    |    c1    |    c2
    0     0.00000000e+00 1.00000000e+00 9.99750031e-01 2.23578850e-02
    1     2.46383091e+02 2.02936004e-03 8.84094302e-01 4.67308533e-01
    2     4.90393378e+02 1.01958962e-03 7.82550604e-01 6.22586984e-01
    3     7.29680909e+02 6.85231028e-04 6.94307415e-01 7.19678548e-01
    4     9.61941214e+02 5.19782282e-04 6.18183088e-01 7.86034141e-01
    5     1.18493750e+03 4.21963184e-04 5.52960477e-01 8.33207484e-01
    6     1.39652219e+03 3.58032263e-04 4.97449570e-01 8.67492896e-01
    7     1.59465761e+03 3.13546932e-04 4.50530815e-01 8.92760878e-01
    8     1.77743560e+03 2.81304144e-04 4.11182633e-01 9.11552984e-01
    9     1.94309592e+03 2.57321317e-04 3.78496688e-01 9.25602646e-01
    10     2.09004316e+03 2.39229510e-04 3.51684231e-01 9.36118690e-01
    11     2.21686214e+03 2.25544021e-04 3.30076422e-01 9.43954213e-01
    12     2.32233153e+03 2.15300871e-04 3.13120943e-01 9.49713259e-01
    13     2.40543559e+03 2.07862560e-04 3.00376739e-01 9.53820641e-01
    14     2.46537400e+03 2.02808986e-04 2.91508242e-01 9.56568317e-01
    15     2.50156951e+03 1.99874518e-04 2.86280050e-01 9.58145987e-01
    16     2.51367353e+03 1.98912068e-04 2.84552711e-01 9.58660396e-01
    17     2.50156951e+03 1.99874518e-04 2.86280050e-01 9.58145987e-01
    18     2.46537400e+03 2.02808986e-04 2.91508242e-01 9.56568317e-01
    19     2.40543559e+03 2.07862560e-04 3.00376739e-01 9.53820641e-01
    20     2.32233153e+03 2.15300871e-04 3.13120943e-01 9.49713259e-01
    21     2.21686214e+03 2.25544021e-04 3.30076422e-01 9.43954213e-01
    22     2.09004316e+03 2.39229510e-04 3.51684231e-01 9.36118690e-01
    23     1.94309592e+03 2.57321317e-04 3.78496688e-01 9.25602646e-01
    24     1.77743560e+03 2.81304144e-04 4.11182633e-01 9.11552984e-01
    25     1.59465761e+03 3.13546932e-04 4.50530815e-01 8.92760878e-01
    26     1.39652219e+03 3.58032263e-04 4.97449570e-01 8.67492896e-01
    27     1.18493750e+03 4.21963184e-04 5.52960477e-01 8.33207484e-01
    28     9.61941214e+02 5.19782282e-04 6.18183088e-01 7.86034141e-01
    29     7.29680909e+02 6.85231028e-04 6.94307415e-01 7.19678548e-01
    30     4.90393378e+02 1.01958962e-03 7.82550604e-01 6.22586984e-01
    31     2.46383091e+02 2.02936004e-03 8.84094302e-01 4.67308533e-01
PILE_L thermostat successfully initialized!

Neighbor list info ...
  update: every = 10 steps, delay = 0 steps, check = no
  max neighbors/atom: 2000, page size: 100000
  master list distance cutoff = 8
  ghost atom cutoff = 8
  binsize = 4, bins = 13 13 13
  1 neighbor lists, perpetual/occasional/extra = 1 0 0
  (1) pair deepmd, perpetual
      attributes: full, newton on
      pair build: full/bin/atomonly
      stencil: full/bin/3d
      bin: standard
Per MPI rank memory allocation (min/avg/max) = 15.5 | 15.5 | 15.5 Mbytes
   Step         PotEng    
         0  -1914325.3    
         1  -1914109.5    
         2  -1913940.9    
         3  -1913808.3    
         4  -1913721.3    
         5  -1913641.5    
         6  -1913568.1    
         7  -1913532.6    
         8  -1913508.1    
         9  -1913481.7    
        10  -1913457.6    
        11  -1913463.7    
        12  -1913482.2    
        13  -1913496.8    
        14  -1913503.3    
        15  -1913521      
        16  -1913501.7    
        17  -1913476.9    
        18  -1913477.6    
        19  -1913452.5    
        20  -1913466.8    
        21  -1913469.8    
        22  -1913496.5    
        23  -1913512.9    
        24  -1913530.6    
        25  -1913546.2    
        26  -1913519.7    
        27  -1913506.8    
        28  -1913469.5    
        29  -1913485.7    
        30  -1913499.6    
        31  -1913511.4    
        32  -1913527.7    
        33  -1913518.4    
        34  -1913523.9    
        35  -1913501.3    
        36  -1913466.9    
        37  -1913475.8    
        38  -1913490.7    
        39  -1913474.3    
        40  -1913471.8    
        41  -1913467      
        42  -1913463.4    
        43  -1913478      
        44  -1913493      
        45  -1913501.8    
        46  -1913487.9    
        47  -1913483.4    
        48  -1913496.7    
        49  -1913502.2    
        50  -1913511.5    
        51  -1913512.2    
        52  -1913509.2    
        53  -1913491.9    
        54  -1913493.7    
        55  -1913498.9    
        56  -1913516.7    
        57  -1913489.4    
        58  -1913474.8    
        59  -1913488.1    
        60  -1913482.2    
        61  -1913498.4    
        62  -1913492.3    
        63  -1913482.6    
        64  -1913476.4    
        65  -1913468.2    
        66  -1913482      
        67  -1913486.1    
        68  -1913492.1    
        69  -1913506.9    
        70  -1913515.9    
        71  -1913512.7    
        72  -1913512.5    
        73  -1913494.8    
        74  -1913490.9    
        75  -1913474.8    
        76  -1913462.2    
        77  -1913472.7    
        78  -1913482.7    
        79  -1913474.7    
        80  -1913457.2    
        81  -1913461.8    
        82  -1913484.8    
        83  -1913491.4    
        84  -1913472.3    
        85  -1913485      
        86  -1913479.9    
        87  -1913485.2    
        88  -1913513.5    
        89  -1913503.9    
        90  -1913519.1    
        91  -1913518.1    
        92  -1913512.7    
        93  -1913493.7    
        94  -1913501.2    
        95  -1913477.4    
        96  -1913486.9    
        97  -1913469.8    
        98  -1913452.2    
        99  -1913461.2    
       100  -1913457.6    
       101  -1913466.8    
       102  -1913459.6    
       103  -1913467.8    
       104  -1913478.6    
       105  -1913497.2    
       106  -1913486.5    
       107  -1913481.5    
       108  -1913487.3    
       109  -1913476.3    
       110  -1913491.2    
       111  -1913489.9    
       112  -1913491.8    
       113  -1913499.3    
       114  -1913515.1    
       115  -1913516.6    
       116  -1913481.2    
       117  -1913476.1    
       118  -1913480.5    
       119  -1913459.9    
       120  -1913478.9    
       121  -1913472.1    
       122  -1913481.5    
       123  -1913474.8    
       124  -1913475.7    
       125  -1913473.5    
       126  -1913487.2    
       127  -1913484.7    
       128  -1913485.7    
       129  -1913477.7    
       130  -1913487.6    
       131  -1913471      
       132  -1913475.8    
       133  -1913474.2    
       134  -1913485.6    
       135  -1913482.3    
       136  -1913478.1    
       137  -1913468.2    
       138  -1913467.4    
       139  -1913471.1    
       140  -1913458.4    
       141  -1913462.6    
       142  -1913472.3    
       143  -1913468      
       144  -1913456.3    
       145  -1913456.8    
       146  -1913458.5    
       147  -1913461.4    
       148  -1913467.9    
       149  -1913478      
       150  -1913482.3    
       151  -1913504.4    
       152  -1913490.7    
       153  -1913498.4    
       154  -1913501.6    
       155  -1913500.1    
       156  -1913470.3    
       157  -1913483.7    
       158  -1913480.2    
       159  -1913457.1    
       160  -1913451.6    
       161  -1913470      
       162  -1913466      
       163  -1913455.2    
       164  -1913460.7    
       165  -1913485.7    
       166  -1913488.3    
       167  -1913475      
       168  -1913484      
       169  -1913499.2    
       170  -1913476.4    
       171  -1913466.1    
       172  -1913463.7    
       173  -1913466.2    
       174  -1913475.6    
       175  -1913487.1    
       176  -1913488.9    
       177  -1913496.9    
       178  -1913498.5    
       179  -1913513.6    
       180  -1913507.1    
       181  -1913500.3    
       182  -1913468.6    
       183  -1913463.8    
       184  -1913468.8    
       185  -1913468.6    
       186  -1913463.1    
       187  -1913458.5    
       188  -1913447.8    
       189  -1913446.1    
       190  -1913463.7    
       191  -1913453.2    
       192  -1913484.5    
       193  -1913496.2    
       194  -1913486.1    
       195  -1913486.7    
       196  -1913485.2    
       197  -1913482.8    
       198  -1913474.3    
       199  -1913473.4    
       200  -1913462      
       201  -1913462.7    
       202  -1913452      
       203  -1913443.3    
       204  -1913471.7    
       205  -1913472.7    
       206  -1913447.9    
       207  -1913448.8    
       208  -1913442.1    
       209  -1913444.5    
       210  -1913459.1    
       211  -1913471.4    
       212  -1913499.5    
       213  -1913498.2    
       214  -1913469.3    
       215  -1913475.5    
       216  -1913491.4    
       217  -1913495.1    
       218  -1913476.7    
       219  -1913457.9    
       220  -1913469      
       221  -1913451.9    
       222  -1913460.3    
       223  -1913461.9    
       224  -1913441.5    
       225  -1913441.4    
       226  -1913441.2    
       227  -1913457.9    
       228  -1913475.2    
       229  -1913478      
       230  -1913463.7    
       231  -1913455.5    
       232  -1913449.4    
       233  -1913451.3    
       234  -1913449.9    
       235  -1913452.9    
       236  -1913466.7    
       237  -1913445.6    
       238  -1913443.3    
       239  -1913456.1    
       240  -1913461.8    
       241  -1913447.9    
       242  -1913438.9    
       243  -1913465.3    
       244  -1913463.2    
       245  -1913471.6    
       246  -1913472      
       247  -1913473.9    
       248  -1913467.6    
       249  -1913463.8    
       250  -1913469.8    
       251  -1913479.3    
       252  -1913476.2    
       253  -1913483.7    
       254  -1913475.6    
       255  -1913452.9    
       256  -1913466.1    
       257  -1913480.2    
       258  -1913480.7    
       259  -1913489.2    
       260  -1913482.5    
       261  -1913481.1    
       262  -1913482.6    
       263  -1913487.4    
       264  -1913485.6    
       265  -1913474.9    
       266  -1913477.3    
       267  -1913484.4    
       268  -1913490.9    
       269  -1913478.9    
       270  -1913472.7    
       271  -1913474.2    
       272  -1913460.3    
       273  -1913460.3    
       274  -1913465      
       275  -1913449.7    
       276  -1913449.8    
       277  -1913471.6    
       278  -1913475.2    
       279  -1913471.1    
       280  -1913468.4    
       281  -1913457.6    
       282  -1913463.7    
       283  -1913452      
       284  -1913450.7    
       285  -1913464.8    
       286  -1913481.9    
       287  -1913457.5    
       288  -1913451.5    
       289  -1913440      
       290  -1913462.3    
       291  -1913438.7    
       292  -1913438.9    
       293  -1913440.9    
       294  -1913446      
       295  -1913466.4    
       296  -1913472.2    
       297  -1913452.8    
       298  -1913438.6    
       299  -1913455.1    
       300  -1913461.7    
       301  -1913470      
       302  -1913446.8    
       303  -1913461.2    
       304  -1913461.2    
       305  -1913458.8    
       306  -1913466.6    
       307  -1913467.2    
       308  -1913474.6    
       309  -1913475.6    
       310  -1913453.6    
       311  -1913456.1    
       312  -1913457.4    
       313  -1913449      
       314  -1913459.3    
       315  -1913469.7    
       316  -1913473.6    
       317  -1913466.4    
       318  -1913450.5    
       319  -1913455.3    
       320  -1913465.3    
       321  -1913459.9    
       322  -1913449.8    
       323  -1913430.1    
       324  -1913441.9    
       325  -1913444.5    
       326  -1913446.6    
       327  -1913463.1    
       328  -1913442.7    
       329  -1913440.6    
       330  -1913446      
       331  -1913434.3    
       332  -1913426      
       333  -1913430.8    
       334  -1913435.4    
       335  -1913433.7    
       336  -1913428.6    
       337  -1913434.5    
       338  -1913444.9    
       339  -1913439.4    
       340  -1913434.6    
       341  -1913450.3    
       342  -1913450.7    
       343  -1913465.5    
       344  -1913462.6    
       345  -1913458.8    
       346  -1913466.5    
       347  -1913463.3    
       348  -1913460.7    
       349  -1913446      
       350  -1913448.9    
       351  -1913444.8    
       352  -1913461.9    
       353  -1913450.7    
       354  -1913434.5    
       355  -1913438.5    
       356  -1913451.8    
       357  -1913452      
       358  -1913444.9    
       359  -1913437.2    
       360  -1913442.5    
       361  -1913445.2    
       362  -1913446.6    
       363  -1913445.8    
       364  -1913444.8    
       365  -1913445.5    
       366  -1913458.3    
       367  -1913465.7    
       368  -1913463.2    
       369  -1913445.3    
       370  -1913437.1    
       371  -1913429.8    
       372  -1913447.7    
       373  -1913454.7    
       374  -1913455.5    
       375  -1913450.6    
       376  -1913454      
       377  -1913453.7    
       378  -1913461      
       379  -1913455.4    
       380  -1913463.3    
       381  -1913479.2    
       382  -1913461.7    
       383  -1913452.3    
       384  -1913453.1    
       385  -1913455.4    
       386  -1913465.3    
       387  -1913464.9    
       388  -1913445.5    
       389  -1913455.8    
       390  -1913463.1    
       391  -1913479.6    
       392  -1913467.2    
       393  -1913455      
       394  -1913444.7    
       395  -1913454.4    
       396  -1913465.6    
       397  -1913448.7    
       398  -1913450.6    
       399  -1913472.4    
       400  -1913463.3    
       401  -1913460.9    
       402  -1913449.5    
       403  -1913446.1    
       404  -1913447.9    
       405  -1913444.9    
       406  -1913413.7    
       407  -1913428.4    
       408  -1913437.9    
       409  -1913435.5    
       410  -1913441.4    
       411  -1913426.5    
       412  -1913435      
       413  -1913415.4    
       414  -1913431.5    
       415  -1913457.9    
       416  -1913472.5    
       417  -1913466.7    
       418  -1913455.9    
       419  -1913449.7    
       420  -1913450.6    
       421  -1913439.1    
       422  -1913457.9    
       423  -1913464.7    
       424  -1913456.3    
       425  -1913460.8    
       426  -1913445.5    
       427  -1913453.1    
       428  -1913459.6    
       429  -1913457.9    
       430  -1913444.6    
       431  -1913423.2    
       432  -1913428.6    
       433  -1913447.2    
       434  -1913463.4    
       435  -1913451.1    
       436  -1913436      
       437  -1913445.9    
       438  -1913452.4    
       439  -1913477.5    
       440  -1913447.9    
       441  -1913446.1    
       442  -1913429      
       443  -1913411.4    
       444  -1913427.5    
       445  -1913443      
       446  -1913451.4    
       447  -1913453.3    
       448  -1913433.7    
       449  -1913424.8    
       450  -1913425.3    
       451  -1913449.9    
       452  -1913440.6    
       453  -1913442.2    
       454  -1913470.7    
       455  -1913469.2    
       456  -1913473.4    
       457  -1913462.3    
       458  -1913436.9    
       459  -1913416.1    
       460  -1913432.7    
       461  -1913433.8    
       462  -1913438.6    
       463  -1913441.6    
       464  -1913429.9    
       465  -1913447.6    
       466  -1913456.3    
       467  -1913444.4    
       468  -1913455.4    
       469  -1913474.8    
       470  -1913474.8    
       471  -1913482.8    
       472  -1913465      
       473  -1913465.1    
       474  -1913450.9    
       475  -1913441.1    
       476  -1913437.6    
       477  -1913432      
       478  -1913439.4    
       479  -1913438.4    
       480  -1913454.7    
       481  -1913452.5    
       482  -1913448.2    
       483  -1913455      
       484  -1913443.5    
       485  -1913422.4    
       486  -1913443.9    
       487  -1913449      
       488  -1913449      
       489  -1913432.5    
       490  -1913437.8    
       491  -1913453.9    
       492  -1913445      
       493  -1913437.1    
       494  -1913425.1    
       495  -1913426.7    
       496  -1913418.8    
       497  -1913422.5    
       498  -1913423.9    
       499  -1913431.6    
       500  -1913442.7    
       501  -1913420.2    
       502  -1913426.5    
       503  -1913438.5    
       504  -1913423.6    
       505  -1913434.2    
       506  -1913425.9    
       507  -1913417.6    
       508  -1913440.6    
       509  -1913453.5    
       510  -1913461.8    
       511  -1913444.6    
       512  -1913448.7    
       513  -1913441.7    
       514  -1913435.9    
       515  -1913413.6    
       516  -1913422.3    
       517  -1913420.4    
       518  -1913411.5    
       519  -1913419.1    
       520  -1913440.2    
       521  -1913457.5    
       522  -1913455.5    
       523  -1913439.9    
       524  -1913432.7    
       525  -1913438.9    
       526  -1913442.3    
       527  -1913463.1    
       528  -1913446.6    
       529  -1913467.5    
       530  -1913464.9    
       531  -1913467.9    
       532  -1913446.6    
       533  -1913435.6    
       534  -1913435.8    
       535  -1913454.2    
       536  -1913447.8    
       537  -1913428.2    
       538  -1913404.3    
       539  -1913392.2    
       540  -1913420      
       541  -1913423.5    
       542  -1913432.8    
       543  -1913437.5    
       544  -1913444.1    
       545  -1913445.5    
       546  -1913453.7    
       547  -1913461.4    
       548  -1913441.9    
       549  -1913423.8    
       550  -1913436.8    
       551  -1913436.4    
       552  -1913430      
       553  -1913445.5    
       554  -1913440.9    
       555  -1913420.9    
       556  -1913418.4    
       557  -1913428.8    
       558  -1913426.9    
       559  -1913406.7    
       560  -1913400      
       561  -1913415.7    
       562  -1913424.2    
       563  -1913429.3    
       564  -1913431.2    
       565  -1913409.6    
       566  -1913421.7    
       567  -1913438.6    
       568  -1913463.2    
       569  -1913442      
       570  -1913440.2    
       571  -1913432.2    
       572  -1913426.9    
       573  -1913458.4    
       574  -1913456.3    
       575  -1913461.7    
       576  -1913454.2    
       577  -1913442      
       578  -1913445.3    
       579  -1913444.9    
       580  -1913445.1    
       581  -1913445.8    
       582  -1913452.6    
       583  -1913441.3    
       584  -1913437.1    
       585  -1913432.2    
       586  -1913431.8    
       587  -1913433.6    
       588  -1913424.6    
       589  -1913420.9    
       590  -1913440.3    
       591  -1913450.8    
       592  -1913443.3    
       593  -1913450.5    
       594  -1913446.4    
       595  -1913443.3    
       596  -1913441      
       597  -1913436.6    
       598  -1913439.3    
       599  -1913445      
       600  -1913405.7    
       601  -1913421      
       602  -1913436.9    
       603  -1913449.8    
       604  -1913437.3    
       605  -1913411.3    
       606  -1913399.9    
       607  -1913408.9    
       608  -1913424.9    
       609  -1913438.7    
       610  -1913443.3    
       611  -1913436.2    
       612  -1913427.3    
       613  -1913418.9    
       614  -1913424.4    
       615  -1913412.9    
       616  -1913439.2    
       617  -1913436.7    
       618  -1913441.3    
       619  -1913451.6    
       620  -1913448.1    
       621  -1913463.1    
       622  -1913450.5    
       623  -1913436.9    
       624  -1913443.1    
       625  -1913436.6    
       626  -1913434.1    
       627  -1913445.3    
       628  -1913454.5    
       629  -1913416.6    
       630  -1913409.8    
       631  -1913433.9    
       632  -1913438.3    
       633  -1913433.8    
       634  -1913437.8    
       635  -1913425.2    
       636  -1913429.4    
       637  -1913423.6    
       638  -1913404.9    
       639  -1913399.5    
       640  -1913417.8    
       641  -1913412.5    
       642  -1913424.9    
       643  -1913435      
       644  -1913437      
       645  -1913438.4    
       646  -1913431.2    
       647  -1913453.3    
       648  -1913458.1    
       649  -1913466.5    
       650  -1913447.8    
       651  -1913447.3    
       652  -1913452.3    
       653  -1913417.5    
       654  -1913402.7    
       655  -1913409      
       656  -1913427.1    
       657  -1913440.8    
       658  -1913446.1    
       659  -1913417.6    
       660  -1913433.2    
       661  -1913433.4    
       662  -1913441.4    
       663  -1913441.9    
       664  -1913417.3    
       665  -1913405      
       666  -1913396      
       667  -1913413.6    
       668  -1913429.7    
       669  -1913420.7    
       670  -1913425      
       671  -1913419.7    
       672  -1913419.5    
       673  -1913424      
       674  -1913418.6    
       675  -1913430.3    
       676  -1913421.2    
       677  -1913419.4    
       678  -1913424.6    
       679  -1913428.2    
       680  -1913433.7    
       681  -1913437.4    
       682  -1913448.7    
       683  -1913440.2    
       684  -1913464.4    
       685  -1913457.4    
       686  -1913440.5    
       687  -1913442.8    
       688  -1913440.8    
       689  -1913433.3    
       690  -1913431.5    
       691  -1913428.8    
       692  -1913429.5    
       693  -1913426.4    
       694  -1913419.1    
       695  -1913414.6    
       696  -1913416.7    
       697  -1913422.3    
       698  -1913432.3    
       699  -1913427.9    
       700  -1913415      
       701  -1913410      
       702  -1913424.8    
       703  -1913431.7    
       704  -1913433.6    
       705  -1913439.7    
       706  -1913432.9    
       707  -1913433.5    
       708  -1913422      
       709  -1913413.9    
       710  -1913403.1    
       711  -1913424.9    
       712  -1913431.8    
       713  -1913438.9    
       714  -1913430.8    
       715  -1913427.5    
       716  -1913430      
       717  -1913418.8    
       718  -1913415.7    
       719  -1913431.9    
       720  -1913420.8    
       721  -1913420.2    
       722  -1913417      
       723  -1913432      
       724  -1913420.8    
       725  -1913423.6    
       726  -1913423.7    
       727  -1913415.3    
       728  -1913415.8    
       729  -1913399.9    
       730  -1913402.9    
       731  -1913429.1    
       732  -1913433.3    
       733  -1913437.4    
       734  -1913433.3    
       735  -1913410.9    
       736  -1913401.4    
       737  -1913393.1    
       738  -1913415.2    
       739  -1913415.1    
       740  -1913427.1    
       741  -1913423.2    
       742  -1913430.1    
       743  -1913440.4    
       744  -1913438.1    
       745  -1913446.1    
       746  -1913461.1    
       747  -1913435.9    
       748  -1913418.5    
       749  -1913418.4    
       750  -1913446.7    
       751  -1913436.6    
       752  -1913433.9    
       753  -1913432.3    
       754  -1913419.7    
       755  -1913426.6    
       756  -1913432.6    
       757  -1913436.6    
       758  -1913427.6    
       759  -1913412.4    
       760  -1913399.4    
       761  -1913405.6    
       762  -1913414.4    
       763  -1913413.7    
       764  -1913414      
       765  -1913415.7    
       766  -1913419.2    
       767  -1913426.9    
       768  -1913450.7    
       769  -1913452.3    
       770  -1913432.5    
       771  -1913409.1    
       772  -1913395.7    
       773  -1913411.4    
       774  -1913425.6    
       775  -1913415      
       776  -1913412.5    
       777  -1913421.8    
       778  -1913427.3    
       779  -1913429.9    
       780  -1913417.7    
       781  -1913408.7    
       782  -1913403.5    
       783  -1913407.5    
       784  -1913415.8    
       785  -1913402.7    
       786  -1913430      
       787  -1913421.8    
       788  -1913411.2    
       789  -1913415.5    
       790  -1913422      
       791  -1913435      
       792  -1913416.7    
       793  -1913416.6    
       794  -1913408      
       795  -1913420.3    
       796  -1913442.8    
       797  -1913431.5    
       798  -1913429.4    
       799  -1913426.1    
       800  -1913414.4    
       801  -1913418      
       802  -1913438.9    
       803  -1913443.2    
       804  -1913428      
       805  -1913414.9    
       806  -1913426.5    
       807  -1913426.4    
       808  -1913415.3    
       809  -1913428.6    
       810  -1913437.9    
       811  -1913448.9    
       812  -1913458.9    
       813  -1913452.4    
       814  -1913417.8    
       815  -1913397.9    
       816  -1913396.9    
       817  -1913400      
       818  -1913386.3    
       819  -1913409.2    
       820  -1913404.3    
       821  -1913419.8    
       822  -1913428.3    
       823  -1913419.3    
       824  -1913442.4    
       825  -1913417.3    
       826  -1913409.7    
       827  -1913428.1    
       828  -1913421.1    
       829  -1913425.2    
       830  -1913403.9    
       831  -1913404.1    
       832  -1913402.4    
       833  -1913420.6    
       834  -1913401      
       835  -1913398.8    
       836  -1913406.2    
       837  -1913419.8    
       838  -1913435.2    
       839  -1913442.9    
       840  -1913422.1    
       841  -1913426.5    
       842  -1913401.4    
       843  -1913422.9    
       844  -1913442      
       845  -1913428.2    
       846  -1913424      
       847  -1913428.2    
       848  -1913423.4    
       849  -1913414.7    
       850  -1913413.5    
       851  -1913436.9    
       852  -1913440.6    
       853  -1913430.9    
       854  -1913426.7    
       855  -1913429.3    
       856  -1913431.7    
       857  -1913428.4    
       858  -1913421.6    
       859  -1913419.9    
       860  -1913414      
       861  -1913428.1    
       862  -1913443.3    
       863  -1913466.9    
       864  -1913456.4    
       865  -1913427.8    
       866  -1913403.5    
       867  -1913391.4    
       868  -1913392      
       869  -1913405.4    
       870  -1913425      
       871  -1913430.4    
       872  -1913410.1    
       873  -1913407.5    
       874  -1913417.4    
       875  -1913435.5    
       876  -1913438.8    
       877  -1913432.1    
       878  -1913414.7    
       879  -1913420.8    
       880  -1913438      
       881  -1913429.7    
       882  -1913422.2    
       883  -1913424.9    
       884  -1913436.7    
       885  -1913435.1    
       886  -1913442.8    
       887  -1913449.7    
       888  -1913456.2    
       889  -1913438.7    
       890  -1913438.8    
       891  -1913440.2    
       892  -1913447.8    
       893  -1913441.6    
       894  -1913443.7    
       895  -1913442.4    
       896  -1913431.1    
       897  -1913418.4    
       898  -1913410.6    
       899  -1913416.6    
       900  -1913413.7    
       901  -1913417.8    
       902  -1913415.7    
       903  -1913410.6    
       904  -1913419.5    
       905  -1913420.9    
       906  -1913406.6    
       907  -1913396.8    
       908  -1913411.4    
       909  -1913417.8    
       910  -1913417.7    
       911  -1913429.3    
       912  -1913424.4    
       913  -1913437.3    
       914  -1913431.8    
       915  -1913434.4    
       916  -1913449.2    
       917  -1913449.9    
       918  -1913438.1    
       919  -1913414.3    
       920  -1913428.2    
       921  -1913418.2    
       922  -1913400.4    
       923  -1913395.8    
       924  -1913392.9    
       925  -1913402.6    
       926  -1913411      
       927  -1913395.7    
       928  -1913394.1    
       929  -1913422.1    
       930  -1913422.5    
       931  -1913418.2    
       932  -1913422.4    
       933  -1913431.5    
       934  -1913418.3    
       935  -1913414.2    
       936  -1913421.9    
       937  -1913416.4    
       938  -1913415.7    
       939  -1913415      
       940  -1913433.8    
       941  -1913426.6    
       942  -1913441.1    
       943  -1913440      
       944  -1913413.5    
       945  -1913409.4    
       946  -1913419.2    
       947  -1913440      
       948  -1913442.1    
       949  -1913454.5    
       950  -1913438.4    
       951  -1913413.9    
       952  -1913417.1    
       953  -1913434.2    
       954  -1913428.8    
       955  -1913431.4    
       956  -1913421.4    
       957  -1913420.7    
       958  -1913410.2    
       959  -1913402.5    
       960  -1913384.4    
       961  -1913382.2    
       962  -1913409.1    
       963  -1913411.4    
       964  -1913427.1    
       965  -1913429.2    
       966  -1913437      
       967  -1913428.4    
       968  -1913410      
       969  -1913422.2    
       970  -1913434.9    
       971  -1913432.6    
       972  -1913435      
       973  -1913414.4    
       974  -1913405.5    
       975  -1913412.9    
       976  -1913418.4    
       977  -1913426.7    
       978  -1913423.9    
       979  -1913421.9    
       980  -1913437.5    
       981  -1913441.8    
       982  -1913427.9    
       983  -1913410.7    
       984  -1913399.2    
       985  -1913373.8    
       986  -1913403.4    
       987  -1913402.4    
       988  -1913393      
       989  -1913414.7    
       990  -1913424.7    
       991  -1913427.2    
       992  -1913437.8    
       993  -1913419.2    
       994  -1913412      
       995  -1913429.2    
       996  -1913432.8    
       997  -1913424.4    
       998  -1913426.1    
       999  -1913444      
      1000  -1913443.7    
Loop time of 188.645 on 1 procs for 1000 steps with 12288 atoms

Performance: 0.229 ns/day, 104.803 hours/ns, 5.301 timesteps/s, 65.138 katom-step/s
81.6% CPU use with 1 MPI tasks x 1 OpenMP threads

MPI task timing breakdown:
Section |  min time  |  avg time  |  max time  |%varavg| %total
---------------------------------------------------------------
Pair    | 24.843     | 24.843     | 24.843     |   0.0 | 13.17
Neigh   | 5.9353     | 5.9353     | 5.9353     |   0.0 |  3.15
Comm    | 0.092289   | 0.092289   | 0.092289   |   0.0 |  0.05
Output  | 0.015196   | 0.015196   | 0.015196   |   0.0 |  0.01
Modify  | 157.74     | 157.74     | 157.74     |   0.0 | 83.62
Other   |            | 0.02351    |            |       |  0.01

Nlocal:          12288 ave       12288 max       12288 min
Histogram: 1 0 0 0 0 0 0 0 0 0
Nghost:          15832 ave       15832 max       15832 min
Histogram: 1 0 0 0 0 0 0 0 0 0
Neighs:              0 ave           0 max           0 min
Histogram: 1 0 0 0 0 0 0 0 0 0
FullNghs:  2.65574e+06 ave 2.65574e+06 max 2.65574e+06 min
Histogram: 1 0 0 0 0 0 0 0 0 0

Total # of neighbors = 2655742
Ave neighs/atom = 216.12484
Neighbor list builds = 100
Dangerous builds not checked
write_data      final.${ibead}
write_data      final.05
System init for write_data ...
Generated 0 of 1 mixed pair_coeff terms from geometric mixing rule

Initializing PI Langevin equation thermostat...
Bead ID    |    omega    |    tau    |    c1    |    c2
    0     0.00000000e+00 1.00000000e+00 9.99750031e-01 2.23578850e-02
    1     2.46383091e+02 2.02936004e-03 8.84094302e-01 4.67308533e-01
    2     4.90393378e+02 1.01958962e-03 7.82550604e-01 6.22586984e-01
    3     7.29680909e+02 6.85231028e-04 6.94307415e-01 7.19678548e-01
    4     9.61941214e+02 5.19782282e-04 6.18183088e-01 7.86034141e-01
    5     1.18493750e+03 4.21963184e-04 5.52960477e-01 8.33207484e-01
    6     1.39652219e+03 3.58032263e-04 4.97449570e-01 8.67492896e-01
    7     1.59465761e+03 3.13546932e-04 4.50530815e-01 8.92760878e-01
    8     1.77743560e+03 2.81304144e-04 4.11182633e-01 9.11552984e-01
    9     1.94309592e+03 2.57321317e-04 3.78496688e-01 9.25602646e-01
    10     2.09004316e+03 2.39229510e-04 3.51684231e-01 9.36118690e-01
    11     2.21686214e+03 2.25544021e-04 3.30076422e-01 9.43954213e-01
    12     2.32233153e+03 2.15300871e-04 3.13120943e-01 9.49713259e-01
    13     2.40543559e+03 2.07862560e-04 3.00376739e-01 9.53820641e-01
    14     2.46537400e+03 2.02808986e-04 2.91508242e-01 9.56568317e-01
    15     2.50156951e+03 1.99874518e-04 2.86280050e-01 9.58145987e-01
    16     2.51367353e+03 1.98912068e-04 2.84552711e-01 9.58660396e-01
    17     2.50156951e+03 1.99874518e-04 2.86280050e-01 9.58145987e-01
    18     2.46537400e+03 2.02808986e-04 2.91508242e-01 9.56568317e-01
    19     2.40543559e+03 2.07862560e-04 3.00376739e-01 9.53820641e-01
    20     2.32233153e+03 2.15300871e-04 3.13120943e-01 9.49713259e-01
    21     2.21686214e+03 2.25544021e-04 3.30076422e-01 9.43954213e-01
    22     2.09004316e+03 2.39229510e-04 3.51684231e-01 9.36118690e-01
    23     1.94309592e+03 2.57321317e-04 3.78496688e-01 9.25602646e-01
    24     1.77743560e+03 2.81304144e-04 4.11182633e-01 9.11552984e-01
    25     1.59465761e+03 3.13546932e-04 4.50530815e-01 8.92760878e-01
    26     1.39652219e+03 3.58032263e-04 4.97449570e-01 8.67492896e-01
    27     1.18493750e+03 4.21963184e-04 5.52960477e-01 8.33207484e-01
    28     9.61941214e+02 5.19782282e-04 6.18183088e-01 7.86034141e-01
    29     7.29680909e+02 6.85231028e-04 6.94307415e-01 7.19678548e-01
    30     4.90393378e+02 1.01958962e-03 7.82550604e-01 6.22586984e-01
    31     2.46383091e+02 2.02936004e-03 8.84094302e-01 4.67308533e-01
PILE_L thermostat successfully initialized!

Total wall time: 0:03:34
