LAMMPS (2 Aug 2023)
Processor partition = 3
OMP_NUM_THREADS environment is not set. Defaulting to 1 thread. (src/comm.cpp:98)
  using 1 OpenMP thread(s) per MPI task
Loaded 1 plugins from /opt/deepmd-kit/lib/deepmd_lmp
clear
OMP_NUM_THREADS environment is not set. Defaulting to 1 thread. (src/comm.cpp:98)
  using 1 OpenMP thread(s) per MPI task
Loaded 1 plugins from /opt/deepmd-kit/lib/deepmd_lmp
# --------------------- VARIABLES-------------------------
variable        ibead           uloop 99 pad
variable        NSTEPS          equal 1000
variable        THERMO_FREQ     equal 1
#variable        DUMP_FREQ       equal 4000
#variable        NREPEAT         equal ${NSTEPS}/${DUMP_FREQ}
variable        TEMP            equal 300.000000
variable        TAU_T           equal 1.000000
# ---------------------- INITIALIZAITION ------------------
units           metal
boundary        p p p
atom_style      atomic
atom_modify     map yes
# --------------------- ATOM DEFINITION ------------------
read_data       /pscratch/sd/y/yifanl/Work/h2o/pimd/initial_config/conf01
Reading data file ...
  orthogonal box = (0 0 0) to (24.76926 24.76926 24.76926)
  1 by 1 by 1 MPI processor grid
  reading atoms ...
  1536 atoms
  read_data CPU = 0.004 seconds
mass            1 16.000000
mass            2 1.000000
replicate       2 2 2
Replication is creating a 2x2x2 = 8 times larger system...
  orthogonal box = (0 0 0) to (49.53852 49.53852 49.53852)
  1 by 1 by 1 MPI processor grid
  12288 atoms
  replicate CPU = 0.001 seconds
# --------------------- FORCE FIELDS ---------------------
pair_style      deepmd /pscratch/sd/y/yifanl/Work/h2o/pimd/benchmark/graph.pb
Summary of lammps deepmd module ...
  >>> Info of deepmd-kit:
  installed to:       /opt/deepmd-kit
  source:             
  source branch:      HEAD
  source commit:      5ec5eae
  source commit at:   2024-02-04 18:53:26 -0500
  support model ver.: 1.1 
  build variant:      cuda
  build with tf inc:  /opt/deepmd-kit/lib/python3.11/site-packages/tensorflow/include;/opt/deepmd-kit/include
  build with tf lib:  /opt/deepmd-kit/lib/python3.11/site-packages/tensorflow/libtensorflow_cc.so.2
  set tf intra_op_parallelism_threads: 0
  set tf inter_op_parallelism_threads: 0
  >>> Info of lammps module:
  use deepmd-kit at:  /opt/deepmd-kitpair_coeff * *
# --------------------- MD SETTINGS ----------------------
neighbor        2.0 bin
neigh_modify    every 10 delay 0 check no
timestep        0.000500
thermo          ${THERMO_FREQ}
thermo          1
thermo_style    custom step pe
#dump            1 all custom ${DUMP_FREQ} ${ibead}.xyz id type x y z
#dump_modify     1 sort id
fix 1 all pimd/langevin ensemble nvt integrator obabo temp ${TEMP} thermostat PILE_L 1234 tau ${TAU_T}
fix 1 all pimd/langevin ensemble nvt integrator obabo temp 300 thermostat PILE_L 1234 tau ${TAU_T}
fix 1 all pimd/langevin ensemble nvt integrator obabo temp 300 thermostat PILE_L 1234 tau 1
# --------------------- RUN ------------------------------
run             ${NSTEPS}
run             1000

CITE-CITE-CITE-CITE-CITE-CITE-CITE-CITE-CITE-CITE-CITE-CITE-CITE

Your simulation uses code contributions which should be cited:

- USER-DEEPMD package:

@article{Wang_ComputPhysCommun_2018_v228_p178,
  author = {Wang, Han and Zhang, Linfeng and Han, Jiequn and E, Weinan},
  doi = {10.1016/j.cpc.2018.03.016},
  url = {https://doi.org/10.1016/j.cpc.2018.03.016},
  year = 2018,
  month = {jul},
  publisher = {Elsevier {BV}},
  volume = 228,
  journal = {Comput. Phys. Commun.},
  title = {{DeePMD-kit: A deep learning package for many-body potential energy representation and molecular dynamics}},
  pages = {178--184}
}
@misc{Zeng_JChemPhys_2023_v159_p054801,
  title  = {{DeePMD-kit v2: A software package for deep potential models}},
  author =   {Jinzhe Zeng and Duo Zhang and Denghui Lu and Pinghui Mo and Zeyu Li
         and Yixiao Chen and Mari{\'a}n Rynik and Li'ang Huang and Ziyao Li and 
         Shaochen Shi and Yingze Wang and Haotian Ye and Ping Tuo and Jiabin
         Yang and Ye Ding and Yifan Li and Davide Tisi and Qiyu Zeng and Han 
         Bao and Yu Xia and Jiameng Huang and Koki Muraoka and Yibo Wang and 
         Junhan Chang and Fengbo Yuan and Sigbj{\o}rn L{\o}land Bore and Chun
         Cai and Yinnian Lin and Bo Wang and Jiayan Xu and Jia-Xin Zhu and 
         Chenxing Luo and Yuzhi Zhang and Rhys E A Goodall and Wenshuo Liang
         and Anurag Kumar Singh and Sikai Yao and Jingchao Zhang and Renata
         Wentzcovitch and Jiequn Han and Jie Liu and Weile Jia and Darrin M
         York and Weinan E and Roberto Car and Linfeng Zhang and Han Wang},
  journal =  {J. Chem. Phys.},
  volume =   159,
  issue =    5,  
  year =    2023,
  pages  =   054801,
  doi =      {10.1063/5.0155600},
}

CITE-CITE-CITE-CITE-CITE-CITE-CITE-CITE-CITE-CITE-CITE-CITE-CITE

Generated 0 of 1 mixed pair_coeff terms from geometric mixing rule

Initializing PI Langevin equation thermostat...
Bead ID    |    omega    |    tau    |    c1    |    c2
    0     0.00000000e+00 1.00000000e+00 9.99750031e-01 2.23578850e-02
    1     2.46383091e+02 2.02936004e-03 8.84094302e-01 4.67308533e-01
    2     4.90393378e+02 1.01958962e-03 7.82550604e-01 6.22586984e-01
    3     7.29680909e+02 6.85231028e-04 6.94307415e-01 7.19678548e-01
    4     9.61941214e+02 5.19782282e-04 6.18183088e-01 7.86034141e-01
    5     1.18493750e+03 4.21963184e-04 5.52960477e-01 8.33207484e-01
    6     1.39652219e+03 3.58032263e-04 4.97449570e-01 8.67492896e-01
    7     1.59465761e+03 3.13546932e-04 4.50530815e-01 8.92760878e-01
    8     1.77743560e+03 2.81304144e-04 4.11182633e-01 9.11552984e-01
    9     1.94309592e+03 2.57321317e-04 3.78496688e-01 9.25602646e-01
    10     2.09004316e+03 2.39229510e-04 3.51684231e-01 9.36118690e-01
    11     2.21686214e+03 2.25544021e-04 3.30076422e-01 9.43954213e-01
    12     2.32233153e+03 2.15300871e-04 3.13120943e-01 9.49713259e-01
    13     2.40543559e+03 2.07862560e-04 3.00376739e-01 9.53820641e-01
    14     2.46537400e+03 2.02808986e-04 2.91508242e-01 9.56568317e-01
    15     2.50156951e+03 1.99874518e-04 2.86280050e-01 9.58145987e-01
    16     2.51367353e+03 1.98912068e-04 2.84552711e-01 9.58660396e-01
    17     2.50156951e+03 1.99874518e-04 2.86280050e-01 9.58145987e-01
    18     2.46537400e+03 2.02808986e-04 2.91508242e-01 9.56568317e-01
    19     2.40543559e+03 2.07862560e-04 3.00376739e-01 9.53820641e-01
    20     2.32233153e+03 2.15300871e-04 3.13120943e-01 9.49713259e-01
    21     2.21686214e+03 2.25544021e-04 3.30076422e-01 9.43954213e-01
    22     2.09004316e+03 2.39229510e-04 3.51684231e-01 9.36118690e-01
    23     1.94309592e+03 2.57321317e-04 3.78496688e-01 9.25602646e-01
    24     1.77743560e+03 2.81304144e-04 4.11182633e-01 9.11552984e-01
    25     1.59465761e+03 3.13546932e-04 4.50530815e-01 8.92760878e-01
    26     1.39652219e+03 3.58032263e-04 4.97449570e-01 8.67492896e-01
    27     1.18493750e+03 4.21963184e-04 5.52960477e-01 8.33207484e-01
    28     9.61941214e+02 5.19782282e-04 6.18183088e-01 7.86034141e-01
    29     7.29680909e+02 6.85231028e-04 6.94307415e-01 7.19678548e-01
    30     4.90393378e+02 1.01958962e-03 7.82550604e-01 6.22586984e-01
    31     2.46383091e+02 2.02936004e-03 8.84094302e-01 4.67308533e-01
PILE_L thermostat successfully initialized!

Neighbor list info ...
  update: every = 10 steps, delay = 0 steps, check = no
  max neighbors/atom: 2000, page size: 100000
  master list distance cutoff = 8
  ghost atom cutoff = 8
  binsize = 4, bins = 13 13 13
  1 neighbor lists, perpetual/occasional/extra = 1 0 0
  (1) pair deepmd, perpetual
      attributes: full, newton on
      pair build: full/bin/atomonly
      stencil: full/bin/3d
      bin: standard
Per MPI rank memory allocation (min/avg/max) = 15.5 | 15.5 | 15.5 Mbytes
   Step         PotEng    
         0  -1914325.3    
         1  -1914101.9    
         2  -1913929.1    
         3  -1913813.7    
         4  -1913727.9    
         5  -1913645.8    
         6  -1913590.6    
         7  -1913536.7    
         8  -1913503.4    
         9  -1913484.7    
        10  -1913472.6    
        11  -1913469.6    
        12  -1913487.2    
        13  -1913499.7    
        14  -1913513.6    
        15  -1913507.2    
        16  -1913504.2    
        17  -1913470.4    
        18  -1913455.3    
        19  -1913446      
        20  -1913428.6    
        21  -1913462.2    
        22  -1913487.9    
        23  -1913516.1    
        24  -1913539.5    
        25  -1913530.9    
        26  -1913526.1    
        27  -1913514.8    
        28  -1913503.4    
        29  -1913518      
        30  -1913520.3    
        31  -1913517.7    
        32  -1913503      
        33  -1913514.7    
        34  -1913523.4    
        35  -1913506.8    
        36  -1913495.5    
        37  -1913459.3    
        38  -1913441.9    
        39  -1913455.8    
        40  -1913467.8    
        41  -1913465.2    
        42  -1913451.9    
        43  -1913477.9    
        44  -1913491.4    
        45  -1913505.6    
        46  -1913510.8    
        47  -1913500.2    
        48  -1913503.9    
        49  -1913493.7    
        50  -1913478.1    
        51  -1913491.7    
        52  -1913473.3    
        53  -1913491.1    
        54  -1913510.9    
        55  -1913506.3    
        56  -1913493.6    
        57  -1913495.3    
        58  -1913476.9    
        59  -1913480.1    
        60  -1913474.5    
        61  -1913471      
        62  -1913482.1    
        63  -1913482.1    
        64  -1913467.1    
        65  -1913481.2    
        66  -1913493.4    
        67  -1913494.9    
        68  -1913495.4    
        69  -1913495.7    
        70  -1913514.4    
        71  -1913511.1    
        72  -1913506.5    
        73  -1913525.9    
        74  -1913510.8    
        75  -1913481      
        76  -1913481.5    
        77  -1913474.7    
        78  -1913487.9    
        79  -1913475.9    
        80  -1913473.5    
        81  -1913487.3    
        82  -1913468      
        83  -1913482.6    
        84  -1913483.3    
        85  -1913488.7    
        86  -1913502.3    
        87  -1913500.1    
        88  -1913505.3    
        89  -1913521.2    
        90  -1913517.7    
        91  -1913507.8    
        92  -1913519.2    
        93  -1913491.1    
        94  -1913481.5    
        95  -1913479.8    
        96  -1913469.7    
        97  -1913477.3    
        98  -1913470.7    
        99  -1913458.4    
       100  -1913465.7    
       101  -1913455.1    
       102  -1913463.9    
       103  -1913464.4    
       104  -1913483.7    
       105  -1913489.7    
       106  -1913510.8    
       107  -1913509.6    
       108  -1913478.2    
       109  -1913484.9    
       110  -1913506.1    
       111  -1913522.2    
       112  -1913504.6    
       113  -1913490.8    
       114  -1913505.7    
       115  -1913502.3    
       116  -1913490.2    
       117  -1913494.8    
       118  -1913492.1    
       119  -1913490.6    
       120  -1913482.8    
       121  -1913479.6    
       122  -1913463.6    
       123  -1913448.5    
       124  -1913456.9    
       125  -1913487.1    
       126  -1913470.8    
       127  -1913453.5    
       128  -1913477.5    
       129  -1913480.7    
       130  -1913479.7    
       131  -1913475      
       132  -1913471.5    
       133  -1913477.4    
       134  -1913481.6    
       135  -1913469.1    
       136  -1913470.9    
       137  -1913482.3    
       138  -1913495.1    
       139  -1913476      
       140  -1913481.5    
       141  -1913472.8    
       142  -1913466.5    
       143  -1913461.2    
       144  -1913457.8    
       145  -1913459.3    
       146  -1913464.3    
       147  -1913475.6    
       148  -1913471.9    
       149  -1913465.7    
       150  -1913484.1    
       151  -1913498.4    
       152  -1913514.2    
       153  -1913506.3    
       154  -1913493.3    
       155  -1913497.3    
       156  -1913505.5    
       157  -1913504.1    
       158  -1913475.1    
       159  -1913470.7    
       160  -1913468      
       161  -1913486.3    
       162  -1913471.8    
       163  -1913476.9    
       164  -1913488.7    
       165  -1913487      
       166  -1913496.2    
       167  -1913478.2    
       168  -1913469      
       169  -1913457.1    
       170  -1913459.4    
       171  -1913440.4    
       172  -1913453.3    
       173  -1913452.9    
       174  -1913477.8    
       175  -1913474      
       176  -1913493.6    
       177  -1913490.7    
       178  -1913476.3    
       179  -1913464.5    
       180  -1913449.4    
       181  -1913455.1    
       182  -1913463.9    
       183  -1913472      
       184  -1913477.1    
       185  -1913481.6    
       186  -1913457.9    
       187  -1913454.7    
       188  -1913484.3    
       189  -1913474      
       190  -1913481.4    
       191  -1913497.6    
       192  -1913478.9    
       193  -1913490.1    
       194  -1913503.6    
       195  -1913496.8    
       196  -1913483.7    
       197  -1913483.3    
       198  -1913460.7    
       199  -1913443      
       200  -1913433.3    
       201  -1913465.2    
       202  -1913452.2    
       203  -1913470.8    
       204  -1913459.8    
       205  -1913442.1    
       206  -1913458.3    
       207  -1913455.5    
       208  -1913459.7    
       209  -1913441.4    
       210  -1913440.7    
       211  -1913465.4    
       212  -1913476.8    
       213  -1913458.8    
       214  -1913474.4    
       215  -1913473.9    
       216  -1913485.6    
       217  -1913499.4    
       218  -1913490.1    
       219  -1913480.2    
       220  -1913468.6    
       221  -1913467.9    
       222  -1913466.5    
       223  -1913467.8    
       224  -1913456.8    
       225  -1913437.4    
       226  -1913432.1    
       227  -1913456.8    
       228  -1913467.6    
       229  -1913473.8    
       230  -1913466.5    
       231  -1913463.6    
       232  -1913442.5    
       233  -1913446.2    
       234  -1913472.7    
       235  -1913466      
       236  -1913453.3    
       237  -1913472      
       238  -1913487.4    
       239  -1913487.5    
       240  -1913490.6    
       241  -1913473.8    
       242  -1913454.6    
       243  -1913455.6    
       244  -1913452.5    
       245  -1913444.6    
       246  -1913467.7    
       247  -1913456.4    
       248  -1913460.3    
       249  -1913465.9    
       250  -1913467      
       251  -1913473.5    
       252  -1913458.6    
       253  -1913484.3    
       254  -1913468.9    
       255  -1913464.6    
       256  -1913476.4    
       257  -1913466      
       258  -1913460.6    
       259  -1913484.1    
       260  -1913497.1    
       261  -1913494      
       262  -1913459.6    
       263  -1913459.8    
       264  -1913486.4    
       265  -1913484.7    
       266  -1913479.2    
       267  -1913482.8    
       268  -1913476.6    
       269  -1913469.5    
       270  -1913483      
       271  -1913480.8    
       272  -1913467.7    
       273  -1913454.8    
       274  -1913448.9    
       275  -1913473.2    
       276  -1913467      
       277  -1913468.8    
       278  -1913465.5    
       279  -1913450.6    
       280  -1913442.8    
       281  -1913449.1    
       282  -1913471.1    
       283  -1913470.5    
       284  -1913475.7    
       285  -1913479      
       286  -1913485.3    
       287  -1913472.5    
       288  -1913458.1    
       289  -1913468.6    
       290  -1913464.2    
       291  -1913469.3    
       292  -1913463.1    
       293  -1913448.9    
       294  -1913447.2    
       295  -1913436.3    
       296  -1913449.5    
       297  -1913451.9    
       298  -1913447.5    
       299  -1913458.9    
       300  -1913448.5    
       301  -1913451.8    
       302  -1913457.4    
       303  -1913468.9    
       304  -1913469.6    
       305  -1913456.7    
       306  -1913449.6    
       307  -1913464.1    
       308  -1913476.6    
       309  -1913476.8    
       310  -1913466.5    
       311  -1913466.5    
       312  -1913457.6    
       313  -1913452.1    
       314  -1913440.1    
       315  -1913450.8    
       316  -1913462.8    
       317  -1913469.4    
       318  -1913465.3    
       319  -1913466      
       320  -1913461.8    
       321  -1913452.9    
       322  -1913461.9    
       323  -1913471.4    
       324  -1913459.3    
       325  -1913445.3    
       326  -1913439.9    
       327  -1913440.4    
       328  -1913456      
       329  -1913443      
       330  -1913427.1    
       331  -1913432.4    
       332  -1913448.7    
       333  -1913451.7    
       334  -1913452.6    
       335  -1913435.9    
       336  -1913448.3    
       337  -1913426.2    
       338  -1913430      
       339  -1913452.5    
       340  -1913450.3    
       341  -1913448.2    
       342  -1913449.9    
       343  -1913463.3    
       344  -1913473.8    
       345  -1913461.8    
       346  -1913474.1    
       347  -1913470.2    
       348  -1913453.3    
       349  -1913457.9    
       350  -1913444.2    
       351  -1913460      
       352  -1913437.9    
       353  -1913422.9    
       354  -1913433.8    
       355  -1913430.5    
       356  -1913456.2    
       357  -1913457.9    
       358  -1913429.5    
       359  -1913444.1    
       360  -1913442.1    
       361  -1913443.3    
       362  -1913448.6    
       363  -1913458.6    
       364  -1913468      
       365  -1913470.9    
       366  -1913480.6    
       367  -1913459.1    
       368  -1913451.6    
       369  -1913446.4    
       370  -1913443      
       371  -1913445.1    
       372  -1913421.4    
       373  -1913430.5    
       374  -1913427.9    
       375  -1913448.3    
       376  -1913440.5    
       377  -1913453.5    
       378  -1913456.2    
       379  -1913469.7    
       380  -1913472.5    
       381  -1913448.4    
       382  -1913446.7    
       383  -1913457.5    
       384  -1913463.7    
       385  -1913448.9    
       386  -1913436.2    
       387  -1913434.9    
       388  -1913421.1    
       389  -1913446.5    
       390  -1913469      
       391  -1913453.4    
       392  -1913462.5    
       393  -1913456.7    
       394  -1913459.2    
       395  -1913454.8    
       396  -1913473.6    
       397  -1913463.4    
       398  -1913469.3    
       399  -1913475.7    
       400  -1913476.3    
       401  -1913473.1    
       402  -1913464      
       403  -1913451.5    
       404  -1913446.2    
       405  -1913469.1    
       406  -1913462.5    
       407  -1913437.6    
       408  -1913423      
       409  -1913442.1    
       410  -1913445.6    
       411  -1913451      
       412  -1913455.4    
       413  -1913456.8    
       414  -1913440      
       415  -1913439.8    
       416  -1913450.3    
       417  -1913456.1    
       418  -1913465      
       419  -1913456.1    
       420  -1913464.7    
       421  -1913472.5    
       422  -1913456.5    
       423  -1913436.7    
       424  -1913441.1    
       425  -1913459.4    
       426  -1913458.8    
       427  -1913455.5    
       428  -1913454.7    
       429  -1913432.8    
       430  -1913436.4    
       431  -1913443.4    
       432  -1913436.9    
       433  -1913419.9    
       434  -1913438.4    
       435  -1913426.9    
       436  -1913428.5    
       437  -1913445.4    
       438  -1913462.6    
       439  -1913446.9    
       440  -1913458.5    
       441  -1913464.7    
       442  -1913448.6    
       443  -1913432.8    
       444  -1913420.1    
       445  -1913439      
       446  -1913448.8    
       447  -1913451.8    
       448  -1913442.2    
       449  -1913441.8    
       450  -1913453.4    
       451  -1913463.2    
       452  -1913448.7    
       453  -1913429.8    
       454  -1913448.1    
       455  -1913456.9    
       456  -1913470.9    
       457  -1913452.4    
       458  -1913444.4    
       459  -1913435      
       460  -1913423      
       461  -1913427.5    
       462  -1913440.6    
       463  -1913439.5    
       464  -1913431.4    
       465  -1913434.4    
       466  -1913444.1    
       467  -1913430.9    
       468  -1913444.9    
       469  -1913465.1    
       470  -1913476.6    
       471  -1913476.9    
       472  -1913459.8    
       473  -1913455.8    
       474  -1913459.3    
       475  -1913426      
       476  -1913420.6    
       477  -1913423.9    
       478  -1913430.1    
       479  -1913453.2    
       480  -1913469.3    
       481  -1913465      
       482  -1913447.5    
       483  -1913442.7    
       484  -1913458.4    
       485  -1913425.1    
       486  -1913437.6    
       487  -1913435.3    
       488  -1913441.4    
       489  -1913460.2    
       490  -1913451.5    
       491  -1913455.5    
       492  -1913437      
       493  -1913456.5    
       494  -1913443      
       495  -1913438      
       496  -1913440.2    
       497  -1913449.4    
       498  -1913448.9    
       499  -1913439.5    
       500  -1913448.4    
       501  -1913463.5    
       502  -1913459.4    
       503  -1913457.9    
       504  -1913446.9    
       505  -1913427.7    
       506  -1913417.4    
       507  -1913419.4    
       508  -1913429.6    
       509  -1913419.3    
       510  -1913445.5    
       511  -1913433.8    
       512  -1913444.9    
       513  -1913445.9    
       514  -1913444.1    
       515  -1913446      
       516  -1913421.9    
       517  -1913416.7    
       518  -1913404.2    
       519  -1913427.3    
       520  -1913427.4    
       521  -1913448.4    
       522  -1913446.4    
       523  -1913435.2    
       524  -1913434.2    
       525  -1913426.9    
       526  -1913437.1    
       527  -1913449.5    
       528  -1913474.5    
       529  -1913467.7    
       530  -1913463.8    
       531  -1913454.8    
       532  -1913426.3    
       533  -1913440.2    
       534  -1913454.4    
       535  -1913460      
       536  -1913450.4    
       537  -1913443.6    
       538  -1913427.1    
       539  -1913427.8    
       540  -1913433.3    
       541  -1913435      
       542  -1913442.2    
       543  -1913452.3    
       544  -1913449.7    
       545  -1913452.1    
       546  -1913449.6    
       547  -1913438.3    
       548  -1913436.7    
       549  -1913451.1    
       550  -1913456.6    
       551  -1913459.9    
       552  -1913453.3    
       553  -1913454      
       554  -1913433.5    
       555  -1913403.3    
       556  -1913390.5    
       557  -1913394.2    
       558  -1913399.8    
       559  -1913401      
       560  -1913392.5    
       561  -1913409.2    
       562  -1913427.9    
       563  -1913414.6    
       564  -1913418.4    
       565  -1913425      
       566  -1913446.4    
       567  -1913445.7    
       568  -1913428.8    
       569  -1913427.7    
       570  -1913424.5    
       571  -1913440.2    
       572  -1913430.7    
       573  -1913439.9    
       574  -1913444.8    
       575  -1913457.4    
       576  -1913456.5    
       577  -1913466.6    
       578  -1913451.7    
       579  -1913455.8    
       580  -1913463.7    
       581  -1913446.9    
       582  -1913445      
       583  -1913435.5    
       584  -1913433.5    
       585  -1913433.4    
       586  -1913435.3    
       587  -1913455.2    
       588  -1913459.8    
       589  -1913448.8    
       590  -1913464.1    
       591  -1913463.8    
       592  -1913452      
       593  -1913455.2    
       594  -1913450.6    
       595  -1913446.7    
       596  -1913444.5    
       597  -1913436      
       598  -1913435.6    
       599  -1913437.5    
       600  -1913427.3    
       601  -1913421.1    
       602  -1913443.9    
       603  -1913432.7    
       604  -1913428.5    
       605  -1913430.7    
       606  -1913422.5    
       607  -1913424.2    
       608  -1913430.3    
       609  -1913436.3    
       610  -1913454.3    
       611  -1913441.5    
       612  -1913406.5    
       613  -1913404.9    
       614  -1913397.6    
       615  -1913417.4    
       616  -1913423.8    
       617  -1913431.1    
       618  -1913425.1    
       619  -1913427.7    
       620  -1913438.3    
       621  -1913430.7    
       622  -1913442.8    
       623  -1913434.5    
       624  -1913437.8    
       625  -1913467      
       626  -1913450.7    
       627  -1913434.3    
       628  -1913433.4    
       629  -1913427.8    
       630  -1913431.3    
       631  -1913424.8    
       632  -1913435.8    
       633  -1913441.8    
       634  -1913439.9    
       635  -1913436.2    
       636  -1913423.2    
       637  -1913448.8    
       638  -1913436.7    
       639  -1913436.6    
       640  -1913411.1    
       641  -1913410.7    
       642  -1913432.6    
       643  -1913444.5    
       644  -1913437      
       645  -1913447.3    
       646  -1913442.7    
       647  -1913441.8    
       648  -1913440.4    
       649  -1913449.7    
       650  -1913437.7    
       651  -1913445.3    
       652  -1913445.1    
       653  -1913441.7    
       654  -1913434.2    
       655  -1913421.8    
       656  -1913439.7    
       657  -1913435.8    
       658  -1913421.3    
       659  -1913401      
       660  -1913413.3    
       661  -1913413.4    
       662  -1913399.2    
       663  -1913403.4    
       664  -1913408.5    
       665  -1913409.5    
       666  -1913420.5    
       667  -1913419.9    
       668  -1913423.4    
       669  -1913416.4    
       670  -1913414.8    
       671  -1913431.9    
       672  -1913439.7    
       673  -1913428.9    
       674  -1913441.1    
       675  -1913423.5    
       676  -1913425.6    
       677  -1913431.1    
       678  -1913420.8    
       679  -1913426.8    
       680  -1913436.9    
       681  -1913442.4    
       682  -1913448.2    
       683  -1913449.6    
       684  -1913443.8    
       685  -1913442      
       686  -1913452.7    
       687  -1913442.7    
       688  -1913428      
       689  -1913434.2    
       690  -1913432.3    
       691  -1913415.6    
       692  -1913444.3    
       693  -1913454.1    
       694  -1913442.1    
       695  -1913418.2    
       696  -1913421.9    
       697  -1913419.4    
       698  -1913411.5    
       699  -1913420      
       700  -1913429.8    
       701  -1913408.8    
       702  -1913431.2    
       703  -1913424.1    
       704  -1913440.1    
       705  -1913453.2    
       706  -1913451.7    
       707  -1913427      
       708  -1913415.4    
       709  -1913421.6    
       710  -1913435.8    
       711  -1913434.5    
       712  -1913415      
       713  -1913413.3    
       714  -1913410.8    
       715  -1913399.4    
       716  -1913392.3    
       717  -1913403.3    
       718  -1913415.7    
       719  -1913417.9    
       720  -1913411.8    
       721  -1913415.6    
       722  -1913430.7    
       723  -1913433.7    
       724  -1913414.1    
       725  -1913414      
       726  -1913406.7    
       727  -1913400      
       728  -1913395.8    
       729  -1913416.7    
       730  -1913428.8    
       731  -1913435.8    
       732  -1913426.9    
       733  -1913423.2    
       734  -1913414.5    
       735  -1913417.7    
       736  -1913417.3    
       737  -1913392.8    
       738  -1913399.3    
       739  -1913398.3    
       740  -1913400.3    
       741  -1913419.9    
       742  -1913417.4    
       743  -1913407.6    
       744  -1913423.7    
       745  -1913447.2    
       746  -1913450.8    
       747  -1913451.9    
       748  -1913439.5    
       749  -1913447.8    
       750  -1913444.5    
       751  -1913428.9    
       752  -1913432.5    
       753  -1913438.5    
       754  -1913424      
       755  -1913424.2    
       756  -1913427.3    
       757  -1913414.1    
       758  -1913413      
       759  -1913406.1    
       760  -1913414      
       761  -1913433.2    
       762  -1913423.3    
       763  -1913416.3    
       764  -1913403.4    
       765  -1913404.8    
       766  -1913429.1    
       767  -1913432.1    
       768  -1913429.1    
       769  -1913432.8    
       770  -1913443.3    
       771  -1913433.2    
       772  -1913433.2    
       773  -1913443.3    
       774  -1913447.4    
       775  -1913417.1    
       776  -1913404.2    
       777  -1913402.7    
       778  -1913416.1    
       779  -1913413.6    
       780  -1913406.7    
       781  -1913391.1    
       782  -1913398.7    
       783  -1913410.4    
       784  -1913415.3    
       785  -1913412.4    
       786  -1913423.4    
       787  -1913430      
       788  -1913427.4    
       789  -1913424.5    
       790  -1913422.5    
       791  -1913441.5    
       792  -1913437.5    
       793  -1913413.5    
       794  -1913407.9    
       795  -1913437.7    
       796  -1913420.4    
       797  -1913424.6    
       798  -1913431.2    
       799  -1913454      
       800  -1913443.4    
       801  -1913442.5    
       802  -1913428.7    
       803  -1913415.1    
       804  -1913425.8    
       805  -1913417.3    
       806  -1913408.6    
       807  -1913419.7    
       808  -1913439      
       809  -1913413      
       810  -1913410.6    
       811  -1913417.9    
       812  -1913435      
       813  -1913430.4    
       814  -1913431.5    
       815  -1913430.5    
       816  -1913430.1    
       817  -1913420.3    
       818  -1913428.1    
       819  -1913418      
       820  -1913427.4    
       821  -1913432      
       822  -1913431.3    
       823  -1913436      
       824  -1913420      
       825  -1913413.6    
       826  -1913410.8    
       827  -1913403.6    
       828  -1913416.8    
       829  -1913427      
       830  -1913418      
       831  -1913414.5    
       832  -1913426.4    
       833  -1913422.7    
       834  -1913412.3    
       835  -1913406.2    
       836  -1913399      
       837  -1913417.6    
       838  -1913427.2    
       839  -1913419.8    
       840  -1913411.2    
       841  -1913416.7    
       842  -1913432.3    
       843  -1913438.1    
       844  -1913431.3    
       845  -1913409.8    
       846  -1913413.6    
       847  -1913416.6    
       848  -1913410.2    
       849  -1913418.4    
       850  -1913429.1    
       851  -1913429      
       852  -1913441.3    
       853  -1913422.4    
       854  -1913409.9    
       855  -1913412.1    
       856  -1913423.9    
       857  -1913432.1    
       858  -1913418.9    
       859  -1913428.5    
       860  -1913435      
       861  -1913446.1    
       862  -1913454.5    
       863  -1913451.5    
       864  -1913448.3    
       865  -1913440.5    
       866  -1913421.3    
       867  -1913397.4    
       868  -1913411.7    
       869  -1913411.2    
       870  -1913427.8    
       871  -1913427      
       872  -1913423.4    
       873  -1913431.6    
       874  -1913414.7    
       875  -1913404.6    
       876  -1913426.3    
       877  -1913426.4    
       878  -1913427.4    
       879  -1913418.2    
       880  -1913418.7    
       881  -1913425      
       882  -1913428.4    
       883  -1913434.3    
       884  -1913442.6    
       885  -1913441      
       886  -1913439.9    
       887  -1913434.5    
       888  -1913450.4    
       889  -1913439.3    
       890  -1913440      
       891  -1913464      
       892  -1913435.7    
       893  -1913434.2    
       894  -1913431.5    
       895  -1913423.2    
       896  -1913429      
       897  -1913419      
       898  -1913413      
       899  -1913409.6    
       900  -1913430.6    
       901  -1913426.7    
       902  -1913419.7    
       903  -1913407.6    
       904  -1913408.2    
       905  -1913422.3    
       906  -1913426.1    
       907  -1913412.9    
       908  -1913415.1    
       909  -1913415.9    
       910  -1913438.9    
       911  -1913429      
       912  -1913433.3    
       913  -1913433.8    
       914  -1913431.3    
       915  -1913434.8    
       916  -1913427.1    
       917  -1913444      
       918  -1913414.2    
       919  -1913415.6    
       920  -1913416.3    
       921  -1913412.5    
       922  -1913411.7    
       923  -1913392.5    
       924  -1913404.8    
       925  -1913407.8    
       926  -1913395      
       927  -1913393.1    
       928  -1913409.3    
       929  -1913431.9    
       930  -1913419.2    
       931  -1913405.2    
       932  -1913412.7    
       933  -1913399.6    
       934  -1913404.2    
       935  -1913421      
       936  -1913436.9    
       937  -1913429.1    
       938  -1913420.8    
       939  -1913424      
       940  -1913441      
       941  -1913434.4    
       942  -1913437.6    
       943  -1913430.3    
       944  -1913437.5    
       945  -1913432.9    
       946  -1913439.2    
       947  -1913447.7    
       948  -1913439.1    
       949  -1913441.6    
       950  -1913437      
       951  -1913413.4    
       952  -1913427.1    
       953  -1913439.3    
       954  -1913443.4    
       955  -1913400.6    
       956  -1913415.6    
       957  -1913409.1    
       958  -1913409.5    
       959  -1913416.7    
       960  -1913405.7    
       961  -1913404.2    
       962  -1913402.9    
       963  -1913410.8    
       964  -1913412.3    
       965  -1913428.9    
       966  -1913408.2    
       967  -1913421      
       968  -1913418.6    
       969  -1913433.5    
       970  -1913440.5    
       971  -1913447.4    
       972  -1913436.7    
       973  -1913415.9    
       974  -1913407.4    
       975  -1913389.3    
       976  -1913411      
       977  -1913398.4    
       978  -1913410.4    
       979  -1913422.4    
       980  -1913431.8    
       981  -1913414.3    
       982  -1913402      
       983  -1913399.5    
       984  -1913393.5    
       985  -1913394.1    
       986  -1913384.4    
       987  -1913416.5    
       988  -1913423.5    
       989  -1913450.4    
       990  -1913450.1    
       991  -1913437.5    
       992  -1913417.6    
       993  -1913418.6    
       994  -1913425.8    
       995  -1913416.9    
       996  -1913414.8    
       997  -1913425.2    
       998  -1913432.7    
       999  -1913441.4    
      1000  -1913433.4    
Loop time of 188.645 on 1 procs for 1000 steps with 12288 atoms

Performance: 0.229 ns/day, 104.803 hours/ns, 5.301 timesteps/s, 65.138 katom-step/s
82.5% CPU use with 1 MPI tasks x 1 OpenMP threads

MPI task timing breakdown:
Section |  min time  |  avg time  |  max time  |%varavg| %total
---------------------------------------------------------------
Pair    | 25.579     | 25.579     | 25.579     |   0.0 | 13.56
Neigh   | 5.9399     | 5.9399     | 5.9399     |   0.0 |  3.15
Comm    | 0.094297   | 0.094297   | 0.094297   |   0.0 |  0.05
Output  | 0.013599   | 0.013599   | 0.013599   |   0.0 |  0.01
Modify  | 157        | 157        | 157        |   0.0 | 83.22
Other   |            | 0.02317    |            |       |  0.01

Nlocal:          12288 ave       12288 max       12288 min
Histogram: 1 0 0 0 0 0 0 0 0 0
Nghost:          15834 ave       15834 max       15834 min
Histogram: 1 0 0 0 0 0 0 0 0 0
Neighs:              0 ave           0 max           0 min
Histogram: 1 0 0 0 0 0 0 0 0 0
FullNghs:  2.65537e+06 ave 2.65537e+06 max 2.65537e+06 min
Histogram: 1 0 0 0 0 0 0 0 0 0

Total # of neighbors = 2655366
Ave neighs/atom = 216.09424
Neighbor list builds = 100
Dangerous builds not checked
write_data      final.${ibead}
write_data      final.04
System init for write_data ...
Generated 0 of 1 mixed pair_coeff terms from geometric mixing rule

Initializing PI Langevin equation thermostat...
Bead ID    |    omega    |    tau    |    c1    |    c2
    0     0.00000000e+00 1.00000000e+00 9.99750031e-01 2.23578850e-02
    1     2.46383091e+02 2.02936004e-03 8.84094302e-01 4.67308533e-01
    2     4.90393378e+02 1.01958962e-03 7.82550604e-01 6.22586984e-01
    3     7.29680909e+02 6.85231028e-04 6.94307415e-01 7.19678548e-01
    4     9.61941214e+02 5.19782282e-04 6.18183088e-01 7.86034141e-01
    5     1.18493750e+03 4.21963184e-04 5.52960477e-01 8.33207484e-01
    6     1.39652219e+03 3.58032263e-04 4.97449570e-01 8.67492896e-01
    7     1.59465761e+03 3.13546932e-04 4.50530815e-01 8.92760878e-01
    8     1.77743560e+03 2.81304144e-04 4.11182633e-01 9.11552984e-01
    9     1.94309592e+03 2.57321317e-04 3.78496688e-01 9.25602646e-01
    10     2.09004316e+03 2.39229510e-04 3.51684231e-01 9.36118690e-01
    11     2.21686214e+03 2.25544021e-04 3.30076422e-01 9.43954213e-01
    12     2.32233153e+03 2.15300871e-04 3.13120943e-01 9.49713259e-01
    13     2.40543559e+03 2.07862560e-04 3.00376739e-01 9.53820641e-01
    14     2.46537400e+03 2.02808986e-04 2.91508242e-01 9.56568317e-01
    15     2.50156951e+03 1.99874518e-04 2.86280050e-01 9.58145987e-01
    16     2.51367353e+03 1.98912068e-04 2.84552711e-01 9.58660396e-01
    17     2.50156951e+03 1.99874518e-04 2.86280050e-01 9.58145987e-01
    18     2.46537400e+03 2.02808986e-04 2.91508242e-01 9.56568317e-01
    19     2.40543559e+03 2.07862560e-04 3.00376739e-01 9.53820641e-01
    20     2.32233153e+03 2.15300871e-04 3.13120943e-01 9.49713259e-01
    21     2.21686214e+03 2.25544021e-04 3.30076422e-01 9.43954213e-01
    22     2.09004316e+03 2.39229510e-04 3.51684231e-01 9.36118690e-01
    23     1.94309592e+03 2.57321317e-04 3.78496688e-01 9.25602646e-01
    24     1.77743560e+03 2.81304144e-04 4.11182633e-01 9.11552984e-01
    25     1.59465761e+03 3.13546932e-04 4.50530815e-01 8.92760878e-01
    26     1.39652219e+03 3.58032263e-04 4.97449570e-01 8.67492896e-01
    27     1.18493750e+03 4.21963184e-04 5.52960477e-01 8.33207484e-01
    28     9.61941214e+02 5.19782282e-04 6.18183088e-01 7.86034141e-01
    29     7.29680909e+02 6.85231028e-04 6.94307415e-01 7.19678548e-01
    30     4.90393378e+02 1.01958962e-03 7.82550604e-01 6.22586984e-01
    31     2.46383091e+02 2.02936004e-03 8.84094302e-01 4.67308533e-01
PILE_L thermostat successfully initialized!

Total wall time: 0:03:34
