LAMMPS data file via write_data, version 2 Aug 2023, timestep = 200000, units = metal

4096 atoms
3 atom types
1024 bonds
1 bond types

0.00024108338054951162 31.286382649373174 xlo xhi
0.00024108338054951162 31.286382649373174 ylo yhi
0.00024108338054951162 31.286382649373174 zlo zhi

Masses

1 15.9994
2 1.00794
3 15.9994

Atoms # full

1 1 1 6 8.663631268289024 30.98405580284729 11.592728197492145 0 -1 -1
2 1 2 1 8.363178452685393 31.1617503541634 10.65318966027319 0 -1 -1
3 1 2 1 8.554787841769393 29.995933105430822 11.738809899679048 0 -1 -1
4 2 1 6 15.588866307147839 1.3412418471207623 2.567424844623703 0 0 -1
5 2 2 1 15.06728670809468 1.6968372524143338 1.8652964065178848 0 0 -1
6 2 2 1 16.492792268866136 1.3763028678139433 2.2961640279315705 0 0 -1
7 3 1 6 22.469017263669116 0.45199245127858184 11.337733707808555 0 0 -1
8 3 2 1 23.182406606846705 0.17536974104753725 11.916502459197558 0 0 -1
9 3 2 1 21.815307684195847 30.99750919670394 11.430566048880767 0 -1 -1
10 4 1 6 22.165662217275422 4.5655106599960344 12.797646802284152 0 0 -1
11 4 2 1 23.058164193065537 4.421384968589671 12.884373407005027 0 0 -1
12 4 2 1 22.077494668910663 5.581627380902486 12.775482377126888 0 0 -1
13 5 1 6 16.896299780817976 29.422861339357844 20.17856868681035 0 -1 -1
14 5 2 1 16.75015007117133 30.155606538125145 19.545031541008548 0 -1 -1
15 5 2 1 17.85831376388656 29.339964005106093 20.07676728598353 0 -1 -1
16 6 1 6 30.841624577505012 26.515585641189098 6.091409899694607 0 -1 0
17 6 2 1 30.521209822394667 27.452912623532878 6.322151184575489 0 -1 0
18 6 2 1 30.96328845800253 26.110518238774848 6.970413136265064 0 -1 0
19 7 1 6 24.622479029328165 8.486734137115516 19.355945637827716 0 0 -1
20 7 2 1 23.97026267035266 7.91985543163884 19.76052783212561 0 0 -1
21 7 2 1 25.290643450633777 7.829180059717303 19.204033353998764 0 0 -1
22 8 1 6 30.945337339028338 13.800968518838458 4.986940911235618 0 0 0
23 8 2 1 0.4472783804661537 14.193826706799053 5.493732158928651 1 0 0
24 8 2 1 30.848102437329473 14.252517425907374 4.120949404640414 0 0 0
25 9 1 6 25.934543208309464 27.392828413816062 10.03192708351119 0 0 0
26 9 2 1 26.52583419500416 27.65689523197368 9.347692027444483 0 0 0
27 9 2 1 25.968314716483267 26.412307090961953 10.067901928695182 0 0 0
28 10 1 6 23.33095205491884 18.24444039916216 11.70247950212055 0 0 0
29 10 2 1 24.036028207335654 17.617981017184075 11.358163798296072 0 0 0
30 10 2 1 22.498819730309847 17.8352101038938 11.299946657657573 0 0 0
31 11 1 6 23.6952866525234 13.962079667366462 1.6976596586832768 0 0 0
32 11 2 1 24.41366464661551 13.286509762813349 1.8462814663905387 0 0 0
33 11 2 1 24.025501759472785 14.684579562844714 2.3183316524433377 0 0 0
34 12 1 6 25.555664952434977 15.372544634905502 25.02619973566431 0 0 -1
35 12 2 1 25.445677046561354 14.368570405388088 25.002568044943576 0 0 -1
36 12 2 1 25.714427855164136 15.708106376023215 25.952691876120046 0 0 -1
37 13 1 6 24.834372715025314 3.0227234827931726 13.009122613501072 0 0 -1
38 13 2 1 25.2862474257139 3.486193453254851 13.719461742510825 0 0 -1
39 13 2 1 25.19402023115024 3.353110371802672 12.173095152945415 0 0 -1
40 14 1 6 24.666752681607218 10.728708503115868 21.056043019882694 0 0 -1
41 14 2 1 24.739222670918075 9.90758681485005 20.487612720590096 0 0 -1
42 14 2 1 23.807523535746324 10.637506963908919 21.50509556794272 0 0 -1
43 15 1 6 25.38670582410322 27.94634823131599 16.11280023746722 0 -1 -1
44 15 2 1 25.441686729493327 27.30234411044924 15.397601312900955 0 -1 -1
45 15 2 1 24.879838768414814 27.579126685968973 16.923760648760787 0 -1 -1
46 16 1 6 27.33521249845947 0.9842026380135036 19.91186135491072 0 0 -1
47 16 2 1 27.90987898912464 1.3829760116631005 19.277346633604672 0 0 -1
48 16 2 1 27.5272223246012 0.055871523869149856 20.06050405126046 0 0 -1
49 17 1 6 8.880922665907061 27.958668781966225 6.104822330934401 0 -1 0
50 17 2 1 9.379115987376775 28.248507946910806 6.888578299520765 0 -1 0
51 17 2 1 8.700947467195446 28.767469582769973 5.485368797596808 0 -1 0
52 18 1 6 15.085843208003114 29.93993771977303 8.951841454732621 0 -1 0
53 18 2 1 15.291179861257865 29.912113352076187 8.053322831185774 0 -1 0
54 18 2 1 15.073298731477273 28.99620229125411 9.225850441666935 0 -1 0
55 19 1 6 22.117906023917026 23.793279770152644 11.612827866144505 0 -1 0
56 19 2 1 22.93479154770545 23.263298881365177 11.614885137798197 0 -1 0
57 19 2 1 22.325349114346643 24.51817805212518 10.95250921230973 0 -1 0
58 20 1 6 4.97445883146531 2.0341810911961136 1.2353430804211971 1 0 0
59 20 2 1 4.850765629538963 2.357686546331748 0.3087056744822636 1 0 0
60 20 2 1 4.061192138021442 1.893146039594194 1.5271189353070527 1 0 0
61 21 1 6 20.577965850282297 17.427931646155063 18.932153558729972 0 0 0
62 21 2 1 20.729839764668533 17.319825470204492 17.93927665529192 0 0 0
63 21 2 1 21.003958687239976 16.76279670583749 19.422763405868803 0 0 0
64 22 1 6 20.438551775749712 2.2805353400820816 13.662502072202127 0 0 0
65 22 2 1 19.885925251558277 2.1163814470565785 12.87863145682621 0 0 0
66 22 2 1 21.087054127403118 3.008363191835991 13.682480756868133 0 0 0
67 23 1 6 14.294988616973408 10.859058672945727 3.613122504710045 0 0 -1
68 23 2 1 13.393352005372384 10.48413996358037 3.543058339192576 0 0 -1
69 23 2 1 14.815708309883467 10.254201836795207 4.108709016263529 0 0 -1
70 24 1 6 11.028660838920187 8.076583634316021 15.475982611869766 1 0 -1
71 24 2 1 11.356534966661567 8.783832512189388 14.836748379089464 1 0 -1
72 24 2 1 11.770657445697362 7.42516588879109 15.60877374525732 1 0 -1
73 25 1 6 23.359402224848154 10.010736397730486 12.523183322629144 0 0 -1
74 25 2 1 22.72039857283001 9.39004961806962 12.917635606129563 0 0 -1
75 25 2 1 23.330247135510266 10.951251906492352 12.78988146114528 0 0 -1
76 26 1 6 28.680336058476524 4.107424064978849 15.637494880487486 0 0 -1
77 26 2 1 28.799459622503424 4.626157474410719 16.455837402588607 0 0 -1
78 26 2 1 29.007559613264917 4.6314038444684655 14.919045947908618 0 0 -1
79 27 1 6 28.625099725733975 2.160638776627294 24.641947751380037 0 1 -1
80 27 2 1 27.90217287810348 1.9308054526010796 25.212007472947263 0 1 -1
81 27 2 1 28.288178090903926 2.5507372760573284 23.80190046357524 0 1 -1
82 28 1 6 3.9549350867538955 11.159090456214933 11.280776770218921 1 0 -1
83 28 2 1 4.269004543206137 10.969851853536547 12.210307852666046 1 0 -1
84 28 2 1 4.267674632357927 10.344379746227341 10.723088117689134 1 0 -1
85 29 1 6 25.855948815988693 5.619783284686817 8.6122920922062 0 0 0
86 29 2 1 25.96332617116697 5.077453046828194 9.414580369134661 0 0 0
87 29 2 1 24.96195352542224 5.975977117906186 8.31105661285516 0 0 0
88 30 1 6 21.211238711523464 14.477108151316598 16.919830813087984 0 0 0
89 30 2 1 20.818823864262654 13.679602148052586 17.190881716501945 0 0 0
90 30 2 1 20.768300671442024 14.872573406982237 16.082011709328818 0 0 0
91 31 1 6 16.05221566766439 17.342864017112838 1.9333792956979021 0 0 0
92 31 2 1 15.750911804265742 18.13961270593111 2.3764201381069574 0 0 0
93 31 2 1 15.961386945592626 17.515425726570868 0.9452541224340325 0 0 0
94 32 1 6 20.90944934524755 22.186494806070616 18.35878146647481 0 0 0
95 32 2 1 21.37565026230994 21.32348091862423 18.463406183351914 0 0 0
96 32 2 1 20.92724388762568 22.234217517899847 17.368866830992914 0 0 0
97 33 1 6 22.607753878007966 14.5626784490919 12.548551033729186 0 0 0
98 33 2 1 22.683588023032563 14.474561577196935 11.592503705172065 0 0 0
99 33 2 1 21.733784760302125 14.917047864781917 12.611442072763754 0 0 0
100 34 1 6 22.361147126441477 22.845766538078394 0.07242922665925386 0 0 -1
101 34 2 1 23.014333272985603 23.167203481756673 30.681237373529758 0 0 -2
102 34 2 1 21.495567215114075 23.033936385309918 31.007632633325656 0 0 -2
103 35 1 6 22.712078508010688 13.875537229299676 22.078002755065157 0 0 -1
104 35 2 1 22.703137486300882 13.050012127574776 22.553514813519026 0 0 -1
105 35 2 1 23.359506645172345 13.793556679598714 21.351952808364203 0 0 -1
106 36 1 6 5.517625739686704 8.665692207513622 25.786665326848343 0 0 -1
107 36 2 1 6.335623441143744 8.69371026958381 26.356949555867587 0 0 -1
108 36 2 1 5.0677286739628995 9.517696666054476 25.689751747323943 0 0 -1
109 37 1 6 22.08971804356093 29.983647039333693 27.702058623304893 0 0 -1
110 37 2 1 22.78579881044461 30.04934598161103 28.333322693166124 0 0 -1
111 37 2 1 21.410087665153142 30.623755905244586 28.04990753274882 0 0 -1
112 38 1 6 23.824180888413537 8.550389156749405 24.30485028911238 0 0 -1
113 38 2 1 23.84202446377792 8.848353822352639 25.27134507919215 0 0 -1
114 38 2 1 23.53713580412469 9.36263028712781 23.8419178951497 0 0 -1
115 39 1 6 27.013970787456863 24.94629670169281 26.323140188296414 0 0 -1
116 39 2 1 27.224477824270057 24.025828138930013 26.35385637899667 0 0 -1
117 39 2 1 27.077274718411154 25.219798207611195 27.241350740615072 0 0 -1
118 40 1 6 25.247836003469736 15.640252735759852 3.6768008286834237 0 0 0
119 40 2 1 24.65742799393775 15.73663245038331 4.507681790359136 0 0 0
120 40 2 1 26.13461636837046 15.334932594118822 4.031495794785389 0 0 0
121 41 1 6 8.202552647389961 17.495002359645145 3.142421860781608 0 0 0
122 41 2 1 9.137897126788081 17.68199486457219 2.9894564996445365 0 0 0
123 41 2 1 7.962447543013176 16.660931394279547 2.8129587890684262 0 0 0
124 42 1 6 24.688527372951228 14.50774206123309 9.716846019487418 0 0 0
125 42 2 1 24.89182163813958 15.270967996277085 10.346633695172594 0 0 0
126 42 2 1 23.723735627361595 14.600295706279011 9.568660993822313 0 0 0
127 43 1 6 11.94042412879383 9.673993827796938 5.354842827278787 0 0 0
128 43 2 1 11.537165993627902 10.450199598743552 5.873774072983431 0 0 0
129 43 2 1 12.741404913510927 9.374878770384331 5.838583213260162 0 0 0
130 44 1 6 12.562136216878073 23.991234978282474 11.884575757290746 0 0 0
131 44 2 1 12.699751031098511 23.321089576043754 12.580279133861948 0 0 0
132 44 2 1 13.414368955984711 24.406806956212304 11.777595728612232 0 0 0
133 45 1 6 16.88034897022599 7.187045790637966 10.07562612360358 0 0 -1
134 45 2 1 17.27003321375417 6.311508190964353 10.087443578161578 0 0 -1
135 45 2 1 16.63382485478103 7.345233135417258 11.043854098465314 0 0 -1
136 46 1 6 21.861716108804348 17.93055334602094 22.931505149127904 0 0 -1
137 46 2 1 21.883074327214622 18.860415420410256 22.845970503335238 0 0 -1
138 46 2 1 22.708236603483456 17.587000020633468 23.34631565832411 0 0 -1
139 47 1 6 28.625028389688307 25.309168443400182 20.633855168152046 0 0 -1
140 47 2 1 29.291185759841436 25.330184899616654 21.346422416919115 0 0 -1
141 47 2 1 28.69658922390894 24.462826624041952 20.22725430219424 0 0 -1
142 48 1 6 28.809342453648178 4.181387158570314 5.06024736029934 0 0 -1
143 48 2 1 27.91338529403884 4.094982289760144 5.3372666660530985 0 0 -1
144 48 2 1 28.98429576580871 3.5036810896036465 4.446089752317515 0 0 -1
145 49 1 6 2.086595286888306 11.806522105706778 23.62253956362503 1 0 -1
146 49 2 1 1.3023452623880336 11.289030050636994 23.782026110872106 1 0 -1
147 49 2 1 2.366460549661452 11.497323065487652 22.765306343382026 1 0 -1
148 50 1 6 19.352683700764487 19.041673341274844 1.6051059953662186 0 0 0
149 50 2 1 19.257106653294098 18.085210796402446 1.4853610673840434 0 0 0
150 50 2 1 19.660911996126785 19.18686222624416 2.5083739799166174 0 0 0
151 51 1 6 15.294304937053766 17.559275672230743 30.624177054917272 0 0 -1
152 51 2 1 14.385840345770157 17.821533587709713 30.990040249081506 0 0 -1
153 51 2 1 15.777103215667198 18.356444647929514 30.36831313632788 0 0 -1
154 52 1 6 17.89329008458064 22.480680916560598 26.039026396036704 0 0 -1
155 52 2 1 18.545712357128743 22.42657819648278 26.753046128950853 0 0 -1
156 52 2 1 18.373052656266907 22.13503927111968 25.246739013425966 0 0 -1
157 53 1 6 21.18188418922999 17.012679530374346 11.311326161163223 0 0 0
158 53 2 1 21.11692250741121 16.464850594031613 10.479996569973506 0 0 0
159 53 2 1 20.548118935221122 17.79355725623047 11.057784001599446 0 0 0
160 54 1 6 15.295871827685138 19.94022555245502 15.282655383282165 0 0 0
161 54 2 1 14.96991196274844 20.684959773563563 14.771280560359099 0 0 0
162 54 2 1 14.435402140761058 19.759322603756637 15.752178315593943 0 0 0
163 55 1 6 21.53725701360467 26.0236573871609 18.298214418519336 0 0 0
164 55 2 1 21.105083814981917 26.10917169544513 17.48952321972668 0 0 0
165 55 2 1 20.89126036925299 25.826190901670014 18.988853201014322 0 0 0
166 56 1 6 11.512837389212473 27.85765481065675 16.335756750036893 0 0 -1
167 56 2 1 12.123411926989359 28.45139074963649 16.878680613908703 0 0 -1
168 56 2 1 12.077980493496309 27.139263236794925 15.937782237677352 0 0 -1
169 57 1 6 0.02030000882930053 22.582648760383183 18.123715888340154 1 0 -1
170 57 2 1 31.131369705157564 22.048905259040932 17.331710568087452 0 0 -1
171 57 2 1 0.49463598725585767 23.361196004038142 17.718939659438217 1 0 -1
172 58 1 6 24.06088575566936 24.35895452621573 15.021926706100535 0 0 -1
173 58 2 1 24.079896312144534 24.468026150177092 15.979856304036225 0 0 -1
174 58 2 1 23.109918616910928 24.494628662453213 14.756614871606212 0 0 -1
175 59 1 6 27.520775442656237 20.66714224755647 25.244298618161338 0 0 -1
176 59 2 1 26.615514981589268 20.968398787173825 25.014728173635834 0 0 -1
177 59 2 1 27.403397859049896 19.689704265692814 25.094929781881184 0 0 -1
178 60 1 6 24.98533902842491 1.8707327287165088 23.492638328708196 0 1 -1
179 60 2 1 25.059340784108052 1.8010898517551455 22.504216112303123 0 1 -1
180 60 2 1 24.124729736719758 1.539934765280852 23.626366718436934 0 1 -1
181 61 1 6 28.68857747814851 3.3372418833918363 30.592027020022158 0 0 -1
182 61 2 1 28.70384127704962 2.6197427546300314 29.95805463011669 0 0 -1
183 61 2 1 29.357089331488005 3.187730950673148 31.27840741491026 0 0 -1
184 62 1 6 28.7514981901343 17.005015804183554 2.411852175556 -1 0 0
185 62 2 1 28.157788389612747 16.63794007200043 3.0662279249410744 -1 0 0
186 62 2 1 28.353988546651053 17.0372822338468 1.5121827258746072 -1 0 0
187 63 1 6 0.44226612514981 11.964101310958785 26.941156221921382 1 0 -1
188 63 2 1 30.957776944953217 11.521573617128414 26.462672688562733 0 0 -1
189 63 2 1 0.7553608638853756 11.336802595763094 27.57384504670825 1 0 -1
190 64 1 6 7.786809317777427 19.076813154745523 6.766636182353696 0 0 0
191 64 2 1 8.765955298223362 19.090242930491492 6.574343979770267 0 0 0
192 64 2 1 7.428757703098521 18.394532186170927 6.185493736584042 0 0 0
193 65 1 6 16.12019207671146 23.270873441105877 30.512895638785146 0 0 -1
194 65 2 1 16.308484410630697 22.365578043700754 30.709338359741203 0 0 -1
195 65 2 1 16.825463256462143 23.729814737068175 29.935486037298965 0 0 -1
196 66 1 6 21.56710156992292 20.2431705537042 0.15594741845637555 0 0 0
197 66 2 1 21.639146257314504 21.23455724811545 0.14199245585573478 0 0 0
198 66 2 1 20.678364628583953 20.04652257853385 0.4345785466446409 0 0 0
199 67 1 6 18.691687494009063 13.459881567658568 12.706241096195857 0 0 -1
200 67 2 1 17.8597828725911 13.82443399998641 12.490404569050172 0 0 -1
201 67 2 1 18.4776417787793 12.69246208093458 13.346932473045653 0 0 -1
202 68 1 6 13.723042541133879 29.0499237828656 17.568906955847083 0 0 -1
203 68 2 1 14.277207883339837 28.253600175266257 17.334129003013665 0 0 -1
204 68 2 1 14.037297982024077 29.38719220781215 18.438143396067467 0 0 -1
205 69 1 6 16.804117674016002 18.652113097073126 23.204828956218744 0 0 -1
206 69 2 1 17.68887545620918 18.752443545973836 23.576584170306212 0 0 -1
207 69 2 1 16.764548537785256 19.109570712438416 22.35003261138683 0 0 -1
208 70 1 6 20.733590076913078 28.19360517624764 23.693076200276597 0 0 -1
209 70 2 1 21.249419812688693 27.46969701093135 23.355046993697087 0 0 -1
210 70 2 1 20.566867419314583 28.789055900212237 23.002885325646783 0 0 -1
211 71 1 6 14.845701362117778 30.516299781224774 13.619205984705202 0 0 -1
212 71 2 1 14.540404623881981 31.186914174201526 13.018271298829653 0 0 -1
213 71 2 1 14.407984510750808 30.75427952133932 14.492356702010243 0 0 -1
214 72 1 6 12.36596903097581 15.646926181416413 0.4110175677120223 0 0 0
215 72 2 1 12.363740464304833 16.493287302808422 31.157287380045975 0 0 -1
216 72 2 1 13.103495427437151 15.046793804724917 0.29472624883917503 0 0 0
217 73 1 6 21.373813398151494 16.54703034490718 29.25299481609153 0 0 -1
218 73 2 1 21.245972816812976 15.822673974656427 28.64578840642272 0 0 -1
219 73 2 1 20.505302274590225 16.787775631452764 29.624301732566504 0 0 -1
220 74 1 6 15.66661749156502 11.720920063621765 1.1665986632368144 0 0 0
221 74 2 1 15.156242942120036 11.11687669460834 1.7654970864735224 0 0 0
222 74 2 1 16.127372555674587 11.18147086133717 0.5240426356021184 0 0 0
223 75 1 6 30.487631134979097 21.05802954606738 15.812446727067021 0 0 0
224 75 2 1 30.917051681953495 20.64397080760549 15.025086695125838 0 0 0
225 75 2 1 29.554671060747637 21.173988753931127 15.5717471918641 0 0 0
226 76 1 6 13.8399186543161 24.796148224930526 9.424155678364814 0 0 0
227 76 2 1 13.65240675121291 25.739881092131185 9.472775535482162 0 0 0
228 76 2 1 14.818990147959555 24.696273239195197 9.568314881804143 0 0 0
229 77 1 6 29.902348433512792 27.442234926922996 28.350671834309807 -1 0 -1
230 77 2 1 29.8558553729615 26.993966322074613 27.45852132726146 -1 0 -1
231 77 2 1 29.653662209932225 28.406536919845642 28.304108052568143 -1 0 -1
232 78 1 6 18.8523121601468 22.054545903280623 2.204382287130679 0 0 -1
233 78 2 1 18.32374295596365 22.513511222715945 2.910020415410421 0 0 -1
234 78 2 1 19.432605634769917 21.365085965222445 2.686785535811241 0 0 -1
235 79 1 6 13.926693424617419 30.811232339782695 29.885809498533003 0 0 -1
236 79 2 1 14.013783911067424 31.150518291426476 30.768447330001685 0 0 -1
237 79 2 1 14.559034494391312 0.06985766929545054 29.305197171101824 0 1 -1
238 80 1 6 11.257172037379318 0.27640769284288763 12.598709151893365 0 1 -1
239 80 2 1 11.2351486779943 30.84453777045512 13.311263451689989 0 0 -1
240 80 2 1 10.58755734444298 0.10806442499862182 11.93132798035464 0 1 -1
241 81 1 6 28.082168401500194 1.4489707461273038 28.705069573261024 0 1 -1
242 81 2 1 27.113578188789347 1.4489917801902261 28.571583245669714 0 1 -1
243 81 2 1 28.47833118692508 2.0423845451024984 28.033037032676823 0 1 -1
244 82 1 6 19.256732968696053 20.729140453309345 22.234331764829967 0 0 -1
245 82 2 1 19.402046336546263 20.147128006776953 22.998839474136425 0 0 -1
246 82 2 1 19.89831434425241 20.653506733614936 21.538313832089003 0 0 -1
247 83 1 6 12.427285768137596 29.19026627564985 4.279388454455191 0 0 0
248 83 2 1 12.461726878972152 28.691285670455912 5.128282416592848 0 0 0
249 83 2 1 13.35732668660894 29.46473983781592 4.138565637999383 0 0 0
250 84 1 6 12.313282853862283 26.361357869970636 30.80744939430958 0 0 -1
251 84 2 1 12.418890003536326 27.333837077596588 30.73166880800852 0 0 -1
252 84 2 1 12.929953503293168 25.972903686952517 30.22828559620506 0 0 -1
253 85 1 6 16.436643739119855 3.2282969226288594 5.384515599011941 0 0 0
254 85 2 1 16.918585254549775 3.9485443440162187 5.797937719744147 0 0 0
255 85 2 1 17.183600506413878 2.705652128398303 5.037249470715305 0 0 0
256 86 1 6 0.2743067142593191 22.907311631425983 0.6264212466395792 1 0 0
257 86 2 1 30.889990631164252 23.58605955790082 0.687446158086919 0 0 0
258 86 2 1 0.8901617524215238 23.01281080344838 1.3605180228782492 1 0 0
259 87 1 6 13.009927401359253 29.255895667112913 21.983172912564914 0 0 0
260 87 2 1 13.225681180428461 28.6500161293437 22.663952766901158 0 0 0
261 87 2 1 12.79477755499632 30.18553112517858 22.313780597630725 0 0 0
262 88 1 6 18.187508644823406 26.56312550595666 17.89121085681987 0 0 0
263 88 2 1 17.21209055753713 26.741932495682033 17.725674815323302 0 0 0
264 88 2 1 18.71485047343203 26.706986253464077 17.08982945475386 0 0 0
265 89 1 6 22.652702391288518 23.569458497223376 20.08983727248639 0 0 -1
266 89 2 1 23.02422813449405 23.10436205066951 20.827155001660866 0 0 -1
267 89 2 1 22.043090859148663 22.9155992714103 19.677441053842607 0 0 -1
268 90 1 6 12.175781667769808 0.8713790061269737 19.365295569167817 0 1 -1
269 90 2 1 12.420156530456543 1.7665145694206474 19.605153820489658 0 1 -1
270 90 2 1 11.249645016716807 0.8369251746858875 19.516314138144967 0 1 -1
271 91 1 6 12.773812821270472 0.04262582335291448 1.427261464368969 0 1 0
272 91 2 1 12.396635941701103 30.854756832349015 2.2120760559002903 0 0 0
273 91 2 1 11.993761118557188 0.039507769290464255 0.8019152748873315 0 1 0
274 92 1 6 16.626052212760758 27.5591215770187 3.1748701901696204 0 0 0
275 92 2 1 16.099695364281853 26.88741333818228 2.6772904559107604 0 0 0
276 92 2 1 16.432782551344495 27.380300053152137 4.095463159439858 0 0 0
277 93 1 6 21.39416648983339 24.854697117018677 14.259964572663593 0 0 0
278 93 2 1 21.188001845099176 23.890261793123155 14.492432945779225 0 0 0
279 93 2 1 21.39456289541119 24.859877297672355 13.29168713821202 0 0 0
280 94 1 6 27.196416126514137 0.2315607499337552 8.2365734308789 0 0 0
281 94 2 1 27.550102540586014 30.892225929156833 8.943705287493422 0 -1 0
282 94 2 1 26.224272284368766 0.2905857012065848 8.554047121032522 0 0 0
283 95 1 6 9.30101685516837 3.275863873522253 8.868129266615943 0 1 0
284 95 2 1 8.546680779630266 2.870210502451286 8.352953698676533 0 1 0
285 95 2 1 9.671411599183044 3.8903764489332127 8.233993760544953 0 1 0
286 96 1 6 13.967266006363822 21.172910773654273 27.40668119971375 0 0 -1
287 96 2 1 13.801675628218396 21.294124026452575 26.48786349937939 0 0 -1
288 96 2 1 14.872495298120153 20.760037740707688 27.41957397666084 0 0 -1
289 97 1 6 18.100042936201728 29.10351887865135 27.234390771262454 0 0 -1
290 97 2 1 18.336917466054608 29.65163870476566 26.485230128630363 0 0 -1
291 97 2 1 18.934895096646535 28.57337393924884 27.522918884385813 0 0 -1
292 98 1 6 3.8445927584008777 21.126859321548775 30.746086417498173 0 0 -1
293 98 2 1 4.042398615671072 20.78294701053188 0.32863583798360413 0 0 0
294 98 2 1 2.903932574118954 20.95141033374576 30.573812333398216 0 0 -1
295 99 1 6 19.266423581421247 28.832639396759472 18.98216805367133 0 0 0
296 99 2 1 18.637250665543494 28.19951092851162 18.67134213482999 0 0 0
297 99 2 1 19.750417223916056 29.110368037867016 18.181277282711942 0 0 0
298 100 1 6 23.626565246195813 18.703404976880847 7.702793610186113 0 0 -1
299 100 2 1 24.418386486285133 19.057952837001746 8.170926884098241 0 0 -1
300 100 2 1 22.842949310832704 19.191116688266074 8.058039038009548 0 0 -1
301 101 1 6 16.053483407495087 26.369918739875757 20.573408056552864 0 0 -1
302 101 2 1 16.100411020481193 27.222866196409328 20.174839800890997 0 0 -1
303 101 2 1 16.250050498517215 26.67273891447263 21.472073039960385 0 0 -1
304 102 1 6 0.5021108823304258 8.396670304128282 19.1929684350364 1 1 -1
305 102 2 1 0.6479226354247911 8.983866823990827 18.399179090018574 1 1 -1
306 102 2 1 1.2627086954187186 7.841904899207982 19.350002022601235 1 1 -1
307 103 1 6 11.765040054161062 31.14133207991893 23.60849541252535 0 0 -1
308 103 2 1 11.088022828663508 30.471271460643177 23.77125093952552 0 0 -1
309 103 2 1 11.226023505263553 0.5925696537096704 23.258682412569357 0 1 -1
310 104 1 6 18.081984297371044 6.7115403523138415 22.24586915660504 0 1 -1
311 104 2 1 18.43054047311482 5.734536920024124 22.179508816393763 0 1 -1
312 104 2 1 17.67433609038815 6.994230521262827 21.397694608433287 0 1 -1
313 105 1 6 25.196721407931957 4.231808741653982 18.615778221998347 0 1 -1
314 105 2 1 24.95746563161408 3.3961957138683014 18.286224069790517 0 1 -1
315 105 2 1 24.90475141615617 4.873482230834798 17.94858266343363 0 1 -1
316 106 1 6 21.698163151619585 25.57443811253553 27.938798220249616 0 0 -1
317 106 2 1 21.279047401312425 26.390239473407362 27.712988112904224 0 0 -1
318 106 2 1 22.226642779446507 25.855509702510865 28.73839728961358 0 0 -1
319 107 1 6 21.25407797957497 21.50270741187482 8.196266912666346 0 0 0
320 107 2 1 20.76888510490733 22.2750233092269 7.867091415964055 0 0 0
321 107 2 1 21.1548245192079 21.487198158497613 9.137784556013012 0 0 0
322 108 1 6 7.340014009289468 3.5674746119265692 22.672751062722853 1 1 -1
323 108 2 1 6.4508096234154175 3.2422136261631915 22.745460888409912 1 1 -1
324 108 2 1 7.674571011030238 3.794075700339876 23.56759316128536 1 1 -1
325 109 1 6 25.81854033190054 9.1117226849276 12.863891123367875 0 1 0
326 109 2 1 26.133292019197945 9.873945163232799 13.383133890204965 0 1 0
327 109 2 1 24.902850918223862 9.39093220465237 12.603514866684424 0 1 0
328 110 1 6 20.24492138787371 0.9312562942173968 0.32064476091730953 0 1 0
329 110 2 1 20.612740756051934 1.7351488339384753 0.6246293436915633 0 1 0
330 110 2 1 20.9874527779537 0.2656332090013529 0.2966172632474152 0 1 0
331 111 1 6 1.0954016510840558 14.481104937598053 16.37332368582539 1 0 -1
332 111 2 1 1.7578071328421272 14.951241277782177 15.914411418490902 1 0 -1
333 111 2 1 1.004595587966965 14.871446797500269 17.2268939300592 1 0 -1
334 112 1 6 18.569860582840214 2.2727698747975524 15.499822471426333 0 0 -1
335 112 2 1 17.851974335816674 1.6714125241126847 15.329203426395758 0 0 -1
336 112 2 1 19.316975630206215 2.239581004841976 14.821364400381874 0 0 -1
337 113 1 6 21.81120666148056 8.561730013502093 14.755808183041205 0 0 -1
338 113 2 1 21.778093493942983 9.520967976232072 14.807350042881685 0 0 -1
339 113 2 1 21.700534970711736 8.08504407585375 15.597257603769124 0 0 -1
340 114 1 6 2.9985275236441686 4.718448679888523 23.554198525462134 1 0 -1
341 114 2 1 3.092404717320199 4.648709873829381 24.548213974590468 1 0 -1
342 114 2 1 3.9095963726755105 4.789223707478783 23.252013128216827 1 0 -1
343 115 1 6 30.907667228998246 31.126259600657477 20.42330500901608 0 -1 -1
344 115 2 1 0.2765350296159048 30.44792538568504 20.393577392029183 1 -1 -1
345 115 2 1 0.06811212746178796 0.6346572010728185 20.881224436752483 1 0 -1
346 116 1 6 28.2060099306851 26.429607442665453 5.754367651624012 0 -1 0
347 116 2 1 29.19149456357206 26.25966332705627 5.700934474966325 0 -1 0
348 116 2 1 28.057356064258244 26.927100116130756 6.632746536807996 0 -1 0
349 117 1 6 1.9073376619220976 29.998663678235594 3.9979308469369665 1 -1 0
350 117 2 1 2.7552429821565143 30.120604965384103 3.528633283781241 1 -1 0
351 117 2 1 1.7895704750864423 29.05701798327129 4.269530594101754 1 -1 0
352 118 1 6 23.222510627033323 23.60259172379129 2.5148993923725413 0 -1 0
353 118 2 1 22.891943223077128 23.07539589542994 3.286443476263086 0 -1 0
354 118 2 1 22.728061410705706 23.18413238063513 1.7843326317148258 0 -1 0
355 119 1 6 12.716034425978808 5.512460131394527 12.315377831334253 0 0 0
356 119 2 1 13.15245028327787 5.86309111534623 11.513224351526597 0 0 0
357 119 2 1 12.361379006362597 4.651228968477179 11.932944722875181 0 0 0
358 120 1 6 25.097939661118343 6.431524438873329 11.873671219397986 0 0 0
359 120 2 1 25.922321175019658 6.854264592764023 12.097295151233002 0 0 0
360 120 2 1 24.512498851416705 7.192219107596444 11.686460145102021 0 0 0
361 121 1 6 11.602030181139899 0.4954205338663507 4.666811987655264 0 0 0
362 121 2 1 11.709624713632898 30.89269341339026 4.957003389385879 0 -1 0
363 121 2 1 12.43840029855718 0.9173648765647869 4.883292826695425 0 0 0
364 122 1 6 18.66627473873732 9.378509968317477 20.193698625332438 0 0 -1
365 122 2 1 17.681289605555758 9.533831525986594 20.343063624346026 0 0 -1
366 122 2 1 19.07671686883266 9.936711256024392 20.87112787474509 0 0 -1
367 123 1 6 26.83766422767417 16.813004241993752 16.046652199203756 0 0 -1
368 123 2 1 25.956638474582714 16.431384946241813 15.760802709968946 0 0 -1
369 123 2 1 26.705651230708668 16.743996229733735 16.994136101200237 0 0 -1
370 124 1 6 20.388099181553656 1.1372902221442565 20.82273674928103 0 0 -1
371 124 2 1 20.486121018629806 0.21169273579742517 20.705694878579894 0 0 -1
372 124 2 1 21.231722940249945 1.5067793784662171 20.99139725896631 0 0 -1
373 125 1 6 17.462765549194906 6.889720603924192 19.51482852412516 0 0 -1
374 125 2 1 18.294762672721458 6.457654623640072 19.590588128883972 0 0 -1
375 125 2 1 16.88074418810959 6.108290593105803 19.318570888050466 0 0 -1
376 126 1 6 18.059887684792315 4.801998301501577 16.42276974855953 0 0 -1
377 126 2 1 18.110099551939616 3.8178294216048023 16.29994083583845 0 0 -1
378 126 2 1 18.41462106269145 4.834495199606411 17.308424663781203 0 0 -1
379 127 1 6 30.289015474604984 29.463084608150332 7.033506999856701 0 -1 0
380 127 2 1 29.314553584355124 29.341735449160844 6.925535635427492 0 -1 0
381 127 2 1 30.501332543358156 30.0363212985638 6.2695679462106275 0 -1 0
382 128 1 6 1.555937279037845 24.86331325710745 17.872455147492783 1 -1 0
383 128 2 1 1.3085946084654563 25.23831609230388 17.008384577391375 1 -1 0
384 128 2 1 2.46069366780922 24.443477006472605 17.89260403252532 1 -1 0
385 129 1 6 14.435021354587638 9.23752264885722 7.128311286035184 0 0 0
386 129 2 1 15.281039243605127 8.97393026855834 7.510716025636513 0 0 0
387 129 2 1 13.822201232152285 8.924485594756113 7.848930592044435 0 0 0
388 130 1 6 13.382067275464818 7.557530882245419 3.658653391376324 1 0 0
389 130 2 1 12.714787981383411 7.643529407382289 2.9202946035691273 1 0 0
390 130 2 1 13.702015320197841 6.659356805435993 3.5145657118864144 1 0 0
391 131 1 6 7.028098297985921 3.862035262598249 30.987636366017927 1 0 -1
392 131 2 1 7.054394343621583 3.5514059633273254 30.035775544603144 1 0 -1
393 131 2 1 6.115585275672542 4.147767799512547 31.09063391498988 1 0 -1
394 132 1 6 24.538657982785775 13.368130085824506 20.047583528805575 0 0 0
395 132 2 1 24.350881351734564 13.33357953535003 19.065342442474737 0 0 0
396 132 2 1 24.646941689851417 12.425086694753382 20.283748914534446 0 0 0
397 133 1 6 14.094251039091786 25.441902725064637 28.47750176906532 0 0 -2
398 133 2 1 14.428739949692893 26.187094480819002 27.905397007666622 0 0 -2
399 133 2 1 14.786085084682728 25.21499628238658 29.156507095797394 0 0 -2
400 134 1 6 25.5780530064975 19.380859363884984 28.873709517298778 0 0 -1
401 134 2 1 25.190113181149503 19.306723129642094 29.76083908466422 0 0 -1
402 134 2 1 26.543089322325212 19.397460690478724 28.99048054051241 0 0 -1
403 135 1 6 3.879274170481871 19.01595242688902 20.59038718569501 1 0 -1