LAMMPS (10 Sep 2025 - Development - patch_10Sep2025-291-gb5c3affdfb-modified)
Processor partition = 0
  using 1 OpenMP thread(s) per MPI task
### bulk water
# ---------------------- VAVIABLE DEFINITION ------------------
### Thermodynamic conditions
variable        TEMP            equal 350.000000
variable        PRES            equal 1.00000

### Simulation settings
variable        ibead           uloop 32 pad
variable        BETA            equal 0.4   # should be same as the setting while training
variable        KMESH           equal 64    # should be twice the box size in Angs
variable        dt              equal 0.0005
variable        NSTEPS          equal 200000
variable        TAU_T           equal 100*${dt}
variable        TAU_T           equal 100*0.0005
variable        TAU_P           equal 1000*${dt}
variable        TAU_P           equal 1000*0.0005
variable        OUT_FREQ        equal 100

# ---------------------- INITIALIZAITION ------------------
units           metal
boundary        p p p
atom_style      full

# the neighbor list between real (1) and its corresponding virtual
# type (3) should be excluded
neighbor        2.0 bin
neigh_modify    every 10 delay 0 check no exclude type 1 3

# --------------------- ATOM DEFINITION ------------------
read_data       ../../../classical_MD/H2O_1024/NVT_equil_from_scratch/conf_new.lmp
Reading data file ...
  orthogonal box = (0.00024108338 0.00024108338 0.00024108338) to (31.286383 31.286383 31.286383)
  1 by 1 by 1 MPI processor grid
  reading atoms ...
  4096 atoms
  reading velocities ...
  4096 velocities
  scanning bonds ...
  1 = max bonds/atom
  orthogonal box = (0.00024108338 0.00024108338 0.00024108338) to (31.286383 31.286383 31.286383)
  1 by 1 by 1 MPI processor grid
  reading bonds ...
  1024 bonds
Finding 1-2 1-3 1-4 neighbors ...
  special bond factors lj:    0        0        0       
  special bond factors coul:  0        0        0       
     1 = max # of 1-2 neighbors
     0 = max # of 1-3 neighbors
     0 = max # of 1-4 neighbors
     1 = max # of special neighbors
  special bonds CPU = 0.000 seconds
  read_data CPU = 0.028 seconds
#replicate       1 1 1
#read_restart    tmp.restart.2

# groups of real and virtual atoms
group           real_atom type 1 2
3072 atoms in group real_atom
group           virtual_atom type 3
1024 atoms in group virtual_atom

# --------------------- FORCE FIELDS ---------------------
# bond between real and its corresponding virtual site should be given
# to setup a map between real and virtual atoms. However, no real
# bonded interaction is applied, thus bond_sytle "zero" is used.
pair_style      deepmd ./frozen_model.pb  #../frozen_model_2.pb ../frozen_model_3.pb ../frozen_model_4.pb out_file md.out OUT_FREQ ${OUT_FREQ}
Summary of lammps deepmd module ...
  >>> Info of deepmd-kit:
  installed to:       /global/homes/k/kehanc/Software/DeePMD/deepmd-kit/install_exe
  source:             v3.1.0-91-g58f60c45
  source branch:      devel
  source commit:      58f60c45
  source commit at:   2025-09-23 03:11:19 +0000
  support model ver.: 1.1 
  build variant:      cuda
  build with tf inc:  /global/homes/k/kehanc/.conda/envs/deepmd-lmp/lib/python3.13/site-packages/tensorflow/include;/global/homes/k/kehanc/.conda/envs/deepmd-lmp/lib/python3.13/site-packages/tensorflow/include
  build with tf lib:  /global/homes/k/kehanc/.conda/envs/deepmd-lmp/lib/python3.13/site-packages/tensorflow/libtensorflow_cc.so.2
  set tf intra_op_parallelism_threads: 0
  set tf inter_op_parallelism_threads: 0
  >>> Info of lammps module:
  use deepmd-kit at:  /global/homes/k/kehanc/Software/LAMMPS/lammps/install_exe
  source:             
  source branch:      
  source commit:      
  source commit at:   
  build with inc:     
  build with lib:     
pair_coeff      * *
WARNING: Interaction between types 1 and 3 is set with deepmd, but will be ignored.
 Deepmd model has only 2 types, it only computes the mulitbody interaction of types: 1-2. (/global/homes/k/kehanc/Software/DeePMD/deepmd-kit/source/lmp/pair_deepmd.cpp:884)
WARNING: Interaction between types 2 and 3 is set with deepmd, but will be ignored.
 Deepmd model has only 2 types, it only computes the mulitbody interaction of types: 1-2. (/global/homes/k/kehanc/Software/DeePMD/deepmd-kit/source/lmp/pair_deepmd.cpp:884)
WARNING: Interaction between types 3 and 3 is set with deepmd, but will be ignored.
 Deepmd model has only 2 types, it only computes the mulitbody interaction of types: 1-2. (/global/homes/k/kehanc/Software/DeePMD/deepmd-kit/source/lmp/pair_deepmd.cpp:884)
bond_style      zero
bond_coeff      *
special_bonds   lj/coul 1 1 1 angle no
Finding 1-2 1-3 1-4 neighbors ...
  special bond factors lj:    1        1        1       
  special bond factors coul:  1        1        1       
     1 = max # of 1-2 neighbors
     1 = max # of special neighbors
  special bonds CPU = 0.001 seconds

# kspace_style "pppm/dplr" should be used. in addition the
# gewald(1/distance) should be set the same as that used in
# training. Currently only ik differentiation is supported.
kspace_style    pppm/dplr 1e-5
kspace_modify   gewald ${BETA} diff ik mesh ${KMESH} ${KMESH} ${KMESH}
kspace_modify   gewald 0.4 diff ik mesh ${KMESH} ${KMESH} ${KMESH}
kspace_modify   gewald 0.4 diff ik mesh 64 ${KMESH} ${KMESH}
kspace_modify   gewald 0.4 diff ik mesh 64 64 ${KMESH}
kspace_modify   gewald 0.4 diff ik mesh 64 64 64

# "fix dplr" set the position of the virtual atom, and spread the
# electrostatic interaction asserting on the virtual atom to the real
# atoms. "type_associate" associates the real atom type the its
# corresponding virtual atom type. "bond_type" gives the type of the
# bond between the real and virtual atoms.
fix             0 all dplr model ./frozen_model.pb type_associate 1 3 bond_type 1
fix_modify      0 virial yes

# --------------------- COMPUTE SETTINGS ----------------------
# compute the temperature of real atoms, excluding virtual atom contribution
compute         real_temp real_atom temp
compute         real_press all pressure real_temp

compute         dipole real_atom deeptensor/atom ../../../model/wfc_lr.pb
Summary of lammps deepmd module ...
  >>> Info of deepmd-kit:
  installed to:       /global/homes/k/kehanc/Software/DeePMD/deepmd-kit/install_exe
  source:             v3.1.0-91-g58f60c45
  source branch:      devel
  source commit:      58f60c45
  source commit at:   2025-09-23 03:11:19 +0000
  support model ver.: 1.1 
  build variant:      cuda
  build with tf inc:  /global/homes/k/kehanc/.conda/envs/deepmd-lmp/lib/python3.13/site-packages/tensorflow/include;/global/homes/k/kehanc/.conda/envs/deepmd-lmp/lib/python3.13/site-packages/tensorflow/include
  build with tf lib:  /global/homes/k/kehanc/.conda/envs/deepmd-lmp/lib/python3.13/site-packages/tensorflow/libtensorflow_cc.so.2
  set tf intra_op_parallelism_threads: 0
  set tf inter_op_parallelism_threads: 0
  >>> Info of lammps module:
  use deepmd-kit at:  /global/homes/k/kehanc/Software/LAMMPS/lammps/install_exe
  source:             
  source branch:      
  source commit:      
  source commit at:   
  build with inc:     
  build with lib:     

# --------------------- MD SETTINGS ----------------------
timestep        ${dt}
timestep        0.0005

velocity        all create ${TEMP} 9234${ibead} dist gaussian
velocity        all create 350 9234${ibead} dist gaussian
velocity        all create 350 923401 dist gaussian
#velocity        real_atom zero linear

#fix             1 all npt temp ${TEMP} ${TEMP} ${TAU_T} iso ${PRES} ${PRES} ${TAU_P}
fix             1 real_atom pimd/langevin method nmpimd integrator obabo ensemble npt temp ${TEMP} thermostat PILE_L 12${ibead} tau ${TAU_T} iso ${PRES} barostat BZP taup ${TAU_P} #fixcom yes
fix             1 real_atom pimd/langevin method nmpimd integrator obabo ensemble npt temp 350 thermostat PILE_L 12${ibead} tau ${TAU_T} iso ${PRES} barostat BZP taup ${TAU_P} 
fix             1 real_atom pimd/langevin method nmpimd integrator obabo ensemble npt temp 350 thermostat PILE_L 1201 tau ${TAU_T} iso ${PRES} barostat BZP taup ${TAU_P} 
fix             1 real_atom pimd/langevin method nmpimd integrator obabo ensemble npt temp 350 thermostat PILE_L 1201 tau 0.05 iso ${PRES} barostat BZP taup ${TAU_P} 
fix             1 real_atom pimd/langevin method nmpimd integrator obabo ensemble npt temp 350 thermostat PILE_L 1201 tau 0.05 iso 1 barostat BZP taup ${TAU_P} 
fix             1 real_atom pimd/langevin method nmpimd integrator obabo ensemble npt temp 350 thermostat PILE_L 1201 tau 0.05 iso 1 barostat BZP taup 0.5 

Initializing PIMD BZP barostat...
  The barostat mass is W = 2.2236881264640001e+03
#fix_modify      1 temp real_temp press real_press      # fix pimd/langevin does not support fix_modify

# --------------------- OUTPUT SETTINGS ----------------------
thermo_style    custom step temp f_1[4] f_1[1] f_1[2] f_1[3] f_1[7] vol f_1[10]     # f_1[4] = f_1[1] + f_1[2] + f_1[3], E = f_1[3] + f_1[7]
thermo_modify   temp real_temp #press real_press    # here does not use "press" for pressure, but use "f_1[10]"
WARNING: Temperature for thermo pressure is not for group all (src/thermo.cpp:570)
thermo          ${OUT_FREQ}
thermo          100
#thermo_modify   flush yes

dump            1 real_atom custom ${OUT_FREQ} traj/water_${ibead}.dump id type x y z ix iy iz c_dipole[1] c_dipole[2] c_dipole[3]
dump            1 real_atom custom 100 traj/water_${ibead}.dump id type x y z ix iy iz c_dipole[1] c_dipole[2] c_dipole[3]
dump            1 real_atom custom 100 traj/water_01.dump id type x y z ix iy iz c_dipole[1] c_dipole[2] c_dipole[3]
dump_modify     1 first yes sort id #append yes

restart         10000 restart/restart_${ibead}.inter.1 restart/restart_${ibead}.inter.2
restart         10000 restart/restart_01.inter.1 restart/restart_${ibead}.inter.2
restart         10000 restart/restart_01.inter.1 restart/restart_01.inter.2

# --------------------- RUN ----------------------
#timer           timeout 1:50:00 every 100
run             ${NSTEPS}
run             200000

CITE-CITE-CITE-CITE-CITE-CITE-CITE-CITE-CITE-CITE-CITE-CITE-CITE

Your simulation uses code contributions which should be cited:

- USER-DEEPMD package:

@article{Wang_ComputPhysCommun_2018_v228_p178,
  author = {Wang, Han and Zhang, Linfeng and Han, Jiequn and E, Weinan},
  doi = {10.1016/j.cpc.2018.03.016},
  url = {https://doi.org/10.1016/j.cpc.2018.03.016},
  year = 2018,
  month = {jul},
  publisher = {Elsevier {BV}},
  volume = 228,
  journal = {Comput. Phys. Commun.},
  title = {{DeePMD-kit: A deep learning package for many-body potential energy representation and molecular dynamics}},
  pages = {178--184}
}
@article{Zeng_JChemPhys_2023_v159_p054801,
  title  = {{DeePMD-kit v2: A software package for deep potential models}},
  author =   {Jinzhe Zeng and Duo Zhang and Denghui Lu and Pinghui Mo and Zeyu Li
         and Yixiao Chen and Mari{\'a}n Rynik and Li'ang Huang and Ziyao Li and 
         Shaochen Shi and Yingze Wang and Haotian Ye and Ping Tuo and Jiabin
         Yang and Ye Ding and Yifan Li and Davide Tisi and Qiyu Zeng and Han 
         Bao and Yu Xia and Jiameng Huang and Koki Muraoka and Yibo Wang and 
         Junhan Chang and Fengbo Yuan and Sigbj{\o}rn L{\o}land Bore and Chun
         Cai and Yinnian Lin and Bo Wang and Jiayan Xu and Jia-Xin Zhu and 
         Chenxing Luo and Yuzhi Zhang and Rhys E A Goodall and Wenshuo Liang
         and Anurag Kumar Singh and Sikai Yao and Jingchao Zhang and Renata
         Wentzcovitch and Jiequn Han and Jie Liu and Weile Jia and Darrin M
         York and Weinan E and Roberto Car and Linfeng Zhang and Han Wang},
  journal =  {J. Chem. Phys.},
  volume =   159,
  issue =    5,  
  year =    2023,
  pages  =   054801,
  doi =      {10.1063/5.0155600},
}
@Article{Zeng_JChemTheoryComput_2025_v21_p4375,
  author =   {Jinzhe Zeng and Duo Zhang and Anyang Peng and Xiangyu Zhang and Sensen
             He and Yan Wang and Xinzijian Liu and Hangrui Bi and Yifan Li and Chun
             Cai and Chengqian Zhang and Yiming Du and Jia-Xin Zhu and Pinghui Mo
             and Zhengtao Huang and Qiyu Zeng and Shaochen Shi and Xuejian Qin and
             Zhaoxi Yu and Chenxing Luo and Ye Ding and Yun-Pei Liu and Ruosong Shi
             and Zhenyu Wang and Sigbj{\o}rn L{\o}land Bore and Junhan Chang and
             Zhe Deng and Zhaohan Ding and Siyuan Han and Wanrun Jiang and Guolin
             Ke and Zhaoqing Liu and Denghui Lu and Koki Muraoka and Hananeh Oliaei
             and Anurag Kumar Singh and Haohui Que and Weihong Xu and Zhangmancang
             Xu and Yong-Bin Zhuang and Jiayu Dai and Timothy J. Giese and Weile
             Jia and Ben Xu and Darrin M. York and Linfeng Zhang and Han Wang},
    title =    {{DeePMD-kit v3: A Multiple-Backend Framework for Machine Learning
             Potentials}},
  journal =  {J. Chem. Theory Comput.},
  year =     2025,
  volume =   21,
  number =   9,
  pages =    {4375--4385},
  doi =      {10.1021/acs.jctc.5c00340},
}

CITE-CITE-CITE-CITE-CITE-CITE-CITE-CITE-CITE-CITE-CITE-CITE-CITE

PPPM initialization ...
  using 12-bit tables for long-range coulomb
  G vector (1/distance) = 0.4
  grid = 64 64 64
  stencil order = 5
  estimated absolute RMS force accuracy = 0.34551132
  estimated relative force accuracy = 0.023994433
  using double precision FFTW3
  3d grid and FFT values/proc = 389017 262144
WARNING: Interaction between types 1 and 3 is set with deepmd, but will be ignored.
 Deepmd model has only 2 types, it only computes the mulitbody interaction of types: 1-2. (/global/homes/k/kehanc/Software/DeePMD/deepmd-kit/source/lmp/pair_base.cpp:446)
WARNING: Interaction between types 2 and 3 is set with deepmd, but will be ignored.
 Deepmd model has only 2 types, it only computes the mulitbody interaction of types: 1-2. (/global/homes/k/kehanc/Software/DeePMD/deepmd-kit/source/lmp/pair_base.cpp:446)
WARNING: Interaction between types 3 and 3 is set with deepmd, but will be ignored.
 Deepmd model has only 2 types, it only computes the mulitbody interaction of types: 1-2. (/global/homes/k/kehanc/Software/DeePMD/deepmd-kit/source/lmp/pair_base.cpp:446)
Generated 0 of 3 mixed pair_coeff terms from geometric mixing rule
Initializing PI Langevin equation thermostat...
  Bead ID    |    omega    |    tau    |    c1    |    c2
      0     0.00000000e+00 5.00000000e-02 9.95012479e-01 9.97505201e-02
      1     2.87446940e+02 1.73945146e-03 8.66127225e-01 4.99823599e-01
      2     5.72125608e+02 8.73933963e-04 7.51215435e-01 6.60057096e-01
      3     8.51294394e+02 5.87340881e-04 6.53346804e-01 7.57058752e-01
      4     1.12226475e+03 4.45527671e-04 5.70562607e-01 8.21254109e-01
      5     1.38242708e+03 3.61682729e-04 5.00967755e-01 8.65465949e-01
      6     1.62927589e+03 3.06884797e-04 4.42799617e-01 8.96620599e-01
      7     1.86043387e+03 2.68754513e-04 3.94468126e-01 9.18909624e-01
      8     2.07367487e+03 2.41117838e-04 3.54574276e-01 9.35027851e-01
      9     2.26694523e+03 2.20561129e-04 3.21913431e-01 9.46769108e-01
      10     2.43838368e+03 2.05053866e-04 2.95468856e-01 9.55352372e-01
      11     2.58633916e+03 1.93323446e-04 2.74399671e-01 9.61615734e-01
      12     2.70938678e+03 1.84543604e-04 2.58026396e-01 9.66137868e-01
      13     2.80634152e+03 1.78167909e-04 2.45816302e-01 9.69316432e-01
      14     2.87626966e+03 1.73836273e-04 2.37370081e-01 9.71419294e-01
      15     2.91849776e+03 1.71321016e-04 2.32410778e-01 9.72617721e-01
      16     2.93261912e+03 1.70496058e-04 2.30775579e-01 9.73007005e-01
      17     2.91849776e+03 1.71321016e-04 2.32410778e-01 9.72617721e-01
      18     2.87626966e+03 1.73836273e-04 2.37370081e-01 9.71419294e-01
      19     2.80634152e+03 1.78167909e-04 2.45816302e-01 9.69316432e-01
      20     2.70938678e+03 1.84543604e-04 2.58026396e-01 9.66137868e-01
      21     2.58633916e+03 1.93323446e-04 2.74399671e-01 9.61615734e-01
      22     2.43838368e+03 2.05053866e-04 2.95468856e-01 9.55352372e-01
      23     2.26694523e+03 2.20561129e-04 3.21913431e-01 9.46769108e-01
      24     2.07367487e+03 2.41117838e-04 3.54574276e-01 9.35027851e-01
      25     1.86043387e+03 2.68754513e-04 3.94468126e-01 9.18909624e-01
      26     1.62927589e+03 3.06884797e-04 4.42799617e-01 8.96620599e-01
      27     1.38242708e+03 3.61682729e-04 5.00967755e-01 8.65465949e-01
      28     1.12226475e+03 4.45527671e-04 5.70562607e-01 8.21254109e-01
      29     8.51294394e+02 5.87340881e-04 6.53346804e-01 7.57058752e-01
      30     5.72125608e+02 8.73933963e-04 7.51215435e-01 6.60057096e-01
      31     2.87446940e+02 1.73945146e-03 8.66127225e-01 4.99823599e-01
  PILE_L thermostat successfully initialized!

WARNING: Neighbor exclusions used with KSpace solver may give inconsistent Coulombic energies (src/neighbor.cpp:659)
Neighbor list info ...
  update: every = 10 steps, delay = 0 steps, check = no
  max neighbors/atom: 2000, page size: 100000
  master list distance cutoff = 8
  ghost atom cutoff = 8
  binsize = 4, bins = 8 8 8
  2 neighbor lists, perpetual/occasional/extra = 1 1 0
  (1) pair deepmd, perpetual
      attributes: full, newton on
      pair build: full/bin
      stencil: full/bin/3d
      bin: standard
  (2) compute deeptensor/atom, occasional, copy from (1)
      attributes: full, newton on
      pair build: copy
      stencil: none
      bin: none
Per MPI rank memory allocation (min/avg/max) = 47.57 | 47.57 | 47.57 Mbytes
   Step          Temp          f_1[4]         f_1[1]         f_1[2]         f_1[3]         f_1[7]         Volume        f_1[10]    
         0   350.19554     -15327541       139.01289      0             -479124.65      138.98051      30623.584     -4314.4826    
       100   9829.2488     -15051975       3901.798       0             -478891.18      386.16109      30283.422     -3585.5981    
       200   10942.335     -15050884       4343.6465      0             -478870.05      384.69359      29848.845      772.59722    
       300   11223.139     -15049043       4455.1139      0             -478861.04      390.92899      29783.747      1607.6661    
       400   10988.492     -15050369       4361.9689      0             -478871.33      387.81413      29909.026      443.98185    
       500   10907.9       -15050516       4329.977       0             -478860         387.22981      29962.189      66.996947    
       600   11101.571     -15049693       4406.8564      0             -478869.05      385.15795      30103.886     -1719.0732    
       700   11409.18      -15049738       4528.9643      0             -478869.43      383.52548      30080.044      486.9466     
       800   11398.809     -15050515       4524.8472      0             -478848.66      385.55777      29855.009     -711.37184    
       900   11314.641     -15049642       4491.4361      0             -478875.13      385.06405      29883.696      629.83089    
      1000   11044.445     -15050190       4384.1798      0             -478862.34      385.83601      29935.662     -1431.5874    
      1100   11187.146     -15050850       4440.826       0             -478872.88      384.8712       29938.867     -1221.5904    
      1200   11376.155     -15050596       4515.8546      0             -478869.45      383.99974      29773.274     -1213.312     
      1300   11307.504     -15049478       4488.6032      0             -478882.02      386.519        29705.514      738.98321    
      1400   11320.709     -15050832       4493.8451      0             -478861.12      386.14766      29706.158      944.16277    
      1500   11130.279     -15050548       4418.2522      0             -478866.3       384.00697      29623.65       1927.1565    
      1600   11479.351     -15050514       4556.819       0             -478868.28      381.71128      29578.112     -942.56378    
      1700   11562.794     -15050655       4589.9426      0             -478852.27      386.38605      29566.487      474.8364     
      1800   11456.492     -15049488       4547.7451      0             -478859.63      387.03005      29548.782      859.52532    
      1900   11397.172     -15050338       4524.1975      0             -478854.47      390.13495      29634.374      1785.5968    
      2000   11140.673     -15050111       4422.3781      0             -478870.81      385.68423      29671.05       428.80163    
      2100   10994.057     -15050260       4364.178       0             -478863.34      386.58841      29708.761      520.32104    
      2200   11536.167     -15049604       4579.3727      0             -478862.77      384.97994      29701.232      1350.2513    
      2300   11440.314     -15050348       4541.3232      0             -478871.31      387.49414      29769.851      659.48721    
      2400   11112.071     -15049597       4411.0245      0             -478872.82      386.034        29752.734     -883.03367    
      2500   11186.749     -15050310       4440.6685      0             -478856.38      386.19783      29763.093      1099.5657    
      2600   11073.241     -15050014       4395.6104      0             -478866.99      384.81662      29973.505     -3533.4173    
      2700   11442.919     -15050259       4542.357       0             -478855.17      384.43492      29963.001     -1020.3927    
      2800   11318.649     -15049445       4493.0273      0             -478859.79      386.33422      29926.978     -188.13644    
      2900   11014.914     -15049369       4372.4573      0             -478848.87      387.13117      29948.477     -569.5834     
      3000   11440.713     -15049969       4541.4814      0             -478858.06      385.23513      29822.818     -1349.846     
      3100   11000.476     -15049867       4366.726       0             -478866.78      385.45182      29707.478     -1492.7359    
      3200   11204.902     -15050485       4447.8746      0             -478854.38      385.25094      29668.031     -174.06143    
      3300   11101.942     -15049739       4407.0036      0             -478866.22      385.88286      29649.967      648.49635    
      3400   11165.148     -15050595       4432.0939      0             -478867.62      385.90897      29702.316      348.95146    
      3500   10983.231     -15050245       4359.8803      0             -478869.97      387.57524      29744.844     -890.36727    
      3600   11192.431     -15049685       4442.9241      0             -478857.56      383.55063      29801.653     -1576.2078    
      3700   11267.275     -15050680       4472.6339      0             -478868.97      383.41614      29897.988      637.88256    
      3800   11423.137     -15050521       4534.5045      0             -478872.95      384.35604      29988.586     -836.91463    
      3900   11417.577     -15049899       4532.2976      0             -478862.47      384.6599       30010.762     -668.76366    
      4000   11223.869     -15049890       4455.4035      0             -478871.31      385.6043       29977.68      -1200.5811    
      4100   11247.066     -15049459       4464.6117      0             -478874.58      385.67827      29948.323     -783.38671    
      4200   11202.953     -15049541       4447.1008      0             -478864.37      385.51923      29983.834      861.01894    
      4300   11044.81      -15050104       4384.3247      0             -478879.47      386.4423       29837.295      344.39404    
      4400   11017.308     -15050126       4373.4075      0             -478880.83      383.60103      29853.8       -1156.4152    
      4500   11323.298     -15050093       4494.8728      0             -478873.23      387.27526      29893.872      81.948721    
      4600   11161.681     -15050246       4430.7175      0             -478869.97      386.52547      29882.707      575.77776    
      4700   11676.781     -15049630       4635.1904      0             -478871.32      387.10194      29972.514      593.36758    
      4800   11435.88      -15050131       4539.5629      0             -478867.28      384.03706      30133.847     -1210.6881    
      4900   11186.639     -15049768       4440.6248      0             -478865.19      385.06442      30190.851     -212.33999    
      5000   11184.157     -15049807       4439.6395      0             -478872.64      386.00391      30101.542     -214.94659    
      5100   11136.521     -15050270       4420.7299      0             -478869.12      389.1039       29935.097      626.38736    
      5200   11516.999     -15050252       4571.7639      0             -478863.12      387.80554      29766.775      1459.6932    
      5300   11195.79      -15049822       4444.2574      0             -478873.63      385.49428      29812.783      995.91182    
      5400   11497.472     -15050045       4564.0124      0             -478873.71      386.55404      29809.26       2483.0755    
      5500   11337.733     -15050138       4500.6026      0             -478863.83      384.0013       29887.508      566.80352    
      5600   11356.476     -15050136       4508.043       0             -478865.41      386.45515      29890.297      1617.2048    
      5700   10979.595     -15050498       4358.4372      0             -478880.81      384.72772      29839.021      854.31456    
      5800   11196.543     -15050750       4444.5562      0             -478857.88      385.54096      29927.549     -811.41993    
      5900   11313.564     -15049269       4491.0087      0             -478864.38      385.12613      30013.998      184.51762    
      6000   11157.807     -15050760       4429.1798      0             -478867.61      383.51839      29972.581     -2543.6506    
      6100   11349.813     -15050237       4505.3979      0             -478869.37      382.23557      29878.029     -515.05814    
      6200   11223.041     -15050147       4455.0747      0             -478851.79      386.19608      29951.256      1082.9711    
      6300   11282.58      -15049427       4478.7092      0             -478863.6       387.4554       29981.758      1145.7439    
      6400   11421.441     -15049029       4533.8311      0             -478864.09      385.62688      30019.072     -9.619523     
      6500   11406.276     -15049764       4527.8112      0             -478859.02      387.01666      29916.126     -1324.8025    
      6600   11171.907     -15050076       4434.777       0             -478874.41      389.63627      29874.144      1314.1298    
      6700   11501.992     -15050017       4565.8066      0             -478865.71      387.39617      29855.474      855.65074    
      6800   11694.488     -15050000       4642.2194      0             -478855.17      387.41983      29918.629      1099.7903    
      6900   11481.371     -15049942       4557.6211      0             -478854.36      387.43695      30010.034      527.8715     
      7000   11160.499     -15050675       4430.2482      0             -478863.36      382.76093      30085.276     -637.59847    
      7100   11528.427     -15050380       4576.3002      0             -478860.07      386.98277      30147.942     -2016.3812    
      7200   11424.046     -15050025       4534.8653      0             -478853.62      382.64754      30229.949     -919.7509     
      7300   11381.684     -15050160       4518.0495      0             -478873.29      384.57683      30282.499     -411.0319     
      7400   11380.105     -15048841       4517.4228      0             -478844.73      388.75176      30316.128     -669.79981    
      7500   11476.247     -15049882       4555.5869      0             -478855.12      385.77608      30395.003     -1120.6556    
      7600   11379.904     -15049976       4517.343       0             -478865.2       383.16892      30405.132     -999.01632    
      7700   11195.167     -15049877       4444.0102      0             -478861.6       386.20427      30404.56      -1622.3375    
      7800   11141.818     -15050594       4422.8327      0             -478866.07      386.54324      30297.137     -1278.9977    
      7900   11150.276     -15049926       4426.1902      0             -478861.73      383.53277      30289.491     -433.03902    
      8000   10989.609     -15050156       4362.4122      0             -478870.12      388.6011       30105.533     -334.25226    
      8100   11298.469     -15050036       4485.0166      0             -478871.13      385.50707      30124.872     -1424.6621    
      8200   11311.782     -15049736       4490.3014      0             -478861.33      386.33215      30100.999      171.456      
      8300   11218.764     -15049705       4453.3769      0             -478861.66      388.13884      30114.203     -897.85953    
      8400   11084.882     -15049879       4400.2317      0             -478865.62      385.83096      30003.167      1147.331     
      8500   11293.095     -15050022       4482.8835      0             -478867.21      385.33452      29987.958     -330.49676    
      8600   11296.19      -15050761       4484.112       0             -478860.73      386.24828      30023.055     -1290.712     
      8700   11385.243     -15049414       4519.4622      0             -478851.7       387.57616      30088.481      504.69631    
      8800   11207.809     -15049914       4449.0285      0             -478870.16      386.15105      30131.128     -353.21938    
      8900   10857.393     -15050464       4309.928       0             -478853.08      387.35345      30291.596      469.49839    
      9000   10981.748     -15050479       4359.2918      0             -478862.1       385.24829      30302.898     -2210.9265    
      9100   11335.014     -15049713       4499.5234      0             -478849.67      390.72389      30171.958     -168.89676    
      9200   11514.553     -15049540       4570.793       0             -478876.98      384.25322      30138.388     -629.58361    
      9300   11411.359     -15050036       4529.8291      0             -478859.86      387.27972      30107.576      299.35685    
      9400   11205.983     -15050516       4448.3035      0             -478864.13      385.8896       30183.934     -1860.5415    
      9500   11396.848     -15050130       4524.0691      0             -478863.85      386.8806       30132.065      125.35124    
      9600   11259.067     -15049202       4469.3756      0             -478872.56      385.33961      30086.25      -956.74619    
      9700   11243.373     -15049651       4463.1459      0             -478854.52      389.41574      30058.973     -1131.51      
      9800   11475.413     -15050660       4555.2557      0             -478865.68      386.64327      30014.762     -1243.5515    
      9900   11121.198     -15049459       4414.6475      0             -478865.73      389.78012      29950.204     -94.858419    
     10000   10964.852     -15049286       4352.5846      0             -478861.49      385.8473       29908.396     -2646.5101    
     10100   11046.747     -15049072       4385.0936      0             -478847.7       390.18466      29871.379     -787.30635    
     10200   11084.034     -15050468       4399.8948      0             -478862.15      386.62195      29872.924      477.48911    
     10300   11259.17      -15049436       4469.4165      0             -478866.19      388.22154      29885.451     -914.52222    
     10400   11051.249     -15049196       4386.8805      0             -478867.07      386.10239      29933.013      713.62678    
     10500   11161.282     -15050190       4430.5591      0             -478850.61      385.55607      29930.453      745.19581    
     10600   10997.836     -15050175       4365.678       0             -478869.56      384.56593      29892.14       1067.5547    
     10700   11143.583     -15049995       4423.5332      0             -478862.91      384.32568      29878.385      240.09773    
     10800   10903.738     -15050710       4328.325       0             -478853.7       387.5535       29825.536      285.63058    
     10900   11059.367     -15049668       4390.103       0             -478864.91      384.82443      29768.539      1236.3923    
     11000   10874.953     -15049452       4316.8987      0             -478859.39      383.52196      29655.99      -526.01903    
     11100   11291.798     -15049925       4482.3687      0             -478852.59      386.8326       29666.188      2448.1077    
     11200   11453.654     -15049436       4546.6187      0             -478856.3       387.08479      29804.775      1454.5153    
     11300   11041.935     -15050046       4383.1832      0             -478853.64      385.72149      29766.957      1233.9116    
     11400   11166.696     -15049851       4432.7081      0             -478882.03      387.54635      29621.02       616.79367    
     11500   11160.502     -15049117       4430.2497      0             -478861.28      387.02437      29637.15       774.73625    
     11600   11156.589     -15049974       4428.6963      0             -478860.39      387.57019      29713.633      447.94726    
     11700   11256.589     -15049655       4468.3922      0             -478860.69      389.03359      29825.527      2057.327     
     11800   11169.886     -15050472       4433.9745      0             -478864.79      384.00711      29928.455     -2042.1723    
     11900   11482.704     -15048814       4558.1501      0             -478860.16      387.40164      29860.143     -468.62905    
     12000   11365.936     -15049948       4511.7983      0             -478856.01      385.40277      29691.826     -1771.0553    
     12100   11345.382     -15050001       4503.6391      0             -478859.31      387.45346      29574.821      1874.1903    
     12200   10861.939     -15050119       4311.7325      0             -478866         389.29414      29676.911      2699.2636    
     12300   11024.816     -15048746       4376.3878      0             -478865.05      384.781        29732.716     -1507.131     
     12400   10711.836     -15050206       4252.148       0             -478859.05      385.91289      29760.772     -1657.171     
     12500   11105.14      -15048973       4408.2731      0             -478848.1       382.84946      29773.53      -294.27955    
     12600   11402.056     -15049648       4526.1363      0             -478858.52      383.95115      29766.773      2209.4614    
     12700   11272.168     -15049939       4474.5764      0             -478866.81      387.28513      29695.019      1235.9353    
     12800   11343.735     -15049964       4502.9855      0             -478867.96      384.89331      29774.426      1509.1982    
     12900   11345.728     -15049194       4503.7764      0             -478859.14      385.65088      29884.405      1216.7749    
     13000   10855.022     -15049640       4308.9868      0             -478856.95      387.2805       30098.491     -482.5716     
     13100   10941.91      -15050650       4343.4778      0             -478863.46      387.11551      30160.718      1379.8539    
     13200   11188.334     -15050209       4441.2975      0             -478849.5       386.44332      30091.132     -860.71776    
     13300   11532.024     -15050010       4577.7282      0             -478867.65      384.16957      29944.648      1478.9139    
     13400   11321.102     -15049841       4494.0008      0             -478853.01      383.06152      29881.814     -25.575522    
     13500   11550.58      -15049233       4585.0941      0             -478868.81      386.19858      29949.879     -338.26492    
     13600   11288.125     -15049591       4480.9105      0             -478853.45      384.82082      30045.8       -526.96327    
     13700   11275.993     -15049365       4476.0947      0             -478870.37      385.21304      30105.957     -805.80346    
     13800   11427.231     -15049455       4536.1295      0             -478860.16      385.27659      30118.815      340.12371    
     13900   11288.999     -15049848       4481.2573      0             -478859         385.94517      30072.814     -1204.1463    
     14000   11306.694     -15050102       4488.2816      0             -478862.57      385.19698      29928.858      562.13009    
     14100   11288.202     -15049232       4480.9409      0             -478877.74      386.60317      29912.979      1039.4415    
     14200   11271.866     -15049546       4474.4564      0             -478858.04      385.36054      30000.193     -1051.2044    
     14300   11237.526     -15050318       4460.8249      0             -478854.62      384.99431      30039.492      225.47482    
     14400   11347.521     -15050273       4504.4883      0             -478854.16      384.86857      29952.269      168.8032     
     14500   11306.763     -15049002       4488.3089      0             -478865.54      389.64381      29854.501     -765.84989    
     14600   11337.012     -15048582       4500.3166      0             -478864.4       389.10321      29788.374     -32.539512    
     14700   11188.975     -15049739       4441.5521      0             -478861.22      386.57487      29787.231      1306.6927    
     14800   10996.01      -15050502       4364.953       0             -478864.24      385.68588      29857.04       1486.5459    
     14900   11188.936     -15050264       4441.5365      0             -478860.52      386.70581      29937.077      637.50205    
     15000   11111.736     -15050006       4410.8916      0             -478847.2       386.34876      29973.385     -1894.7172    
     15100   11257.14      -15050441       4468.6108      0             -478859.91      386.27424      30019.906      1696.7576    
     15200   11146.697     -15050645       4424.7693      0             -478869.12      383.45225      30097.944      1120.9441    
     15300   11209.453     -15050561       4449.6812      0             -478862.56      385.17165      30158.004     -456.27133    
     15400   11247.253     -15048926       4464.6861      0             -478856.61      389.53286      30258.906     -21.279034    
     15500   11663.918     -15049841       4630.0843      0             -478870.01      385.66471      30291.354      533.2964     
     15600   11085.114     -15049056       4400.3238      0             -478861.7       385.80711      30194.859     -987.1192     
     15700   11439.621     -15050768       4541.0481      0             -478856.86      386.49582      30020.73       1513.0691    
     15800   11441.104     -15050603       4541.6367      0             -478846.86      386.07462      29910.361     -371.84546    
     15900   11051.014     -15050229       4386.7875      0             -478859.06      389.31228      29895.164      1358.0448    
     16000   11209.946     -15049002       4449.8765      0             -478859.29      389.56882      29838.298      75.051424    
     16100   11048.331     -15049704       4385.7224      0             -478852.01      388.38587      29828.906      2395.2506    
     16200   11076.721     -15049707       4396.9919      0             -478860.36      386.98414      29860.275      555.53992    
     16300   11121.055     -15051045       4414.5905      0             -478872.48      381.8253       29936.54      -373.35024    
     16400   11237.542     -15049653       4460.8312      0             -478866.04      388.45895      29849.25      -342.34257    
     16500   11032.275     -15049238       4379.3487      0             -478854.26      387.95261      29787.65      -450.71635    
     16600   11010.051     -15050048       4370.5266      0             -478848.19      387.18725      29691.633     -844.92161    
     16700   11139.278     -15049767       4421.8244      0             -478863.98      387.08673      29622.066      1022.9       
     16800   11269.974     -15050741       4473.7053      0             -478861.38      384.89867      29701.746      79.046639    
     16900   11189.16      -15050600       4441.6254      0             -478857.08      385.79814      29721.532      58.711337    
     17000   11275.777     -15050538       4476.0087      0             -478872.02      385.30454      29725.821     -980.71809    
     17100   11445.397     -15050156       4543.3409      0             -478867.04      387.6101       29724.969      512.22082    
     17200   10933.692     -15050184       4340.2156      0             -478866.63      386.50514      29842.64      -114.23766    
     17300   11240.399     -15050034       4461.9651      0             -478864.21      387.64857      29910.211      2088.9117    
     17400   10882.651     -15049985       4319.9542      0             -478852.52      386.32913      29924.409     -652.98146    
     17500   11284.09      -15049919       4479.3087      0             -478867.41      387.14113      29962.886     -157.31603    
     17600   11151.609     -15050285       4426.7192      0             -478855.81      386.32724      29799.942     -86.741905    
     17700   10881.602     -15050819       4319.5377      0             -478857.92      385.65624      29720.955     -1598.5275    
     17800   11344.607     -15050958       4503.3313      0             -478862.38      387.97996      29685.022     -1141.2944    
     17900   11325.473     -15049497       4495.736       0             -478854.95      385.34434      29613.066      944.0422     
     18000   11260.635     -15049793       4469.9982      0             -478850.56      385.51526      29568.435      469.72814    
     18100   11278.277     -15049845       4477.0012      0             -478853.72      385.94527      29605.742     -665.96981    
     18200   10966.232     -15050275       4353.1326      0             -478856.96      385.24521      29665.655     -11.358168    
     18300   11097.264     -15050526       4405.1468      0             -478850.13      387.03058      29618.606     -937.22258    
     18400   11312.094     -15049979       4490.4251      0             -478862.42      386.64115      29505.157      1507.2183    
     18500   10931.078     -15050892       4339.1777      0             -478857.13      383.03161      29456.553     -142.22034    
     18600   11244.875     -15050149       4463.742       0             -478865.61      385.24505      29588.483     -589.64921    
     18700   11026.781     -15049960       4377.168       0             -478861.1       386.47918      29565.566     -225.14936    
     18800   11118.501     -15049547       4413.5768      0             -478864.73      389.15554      29527.135      692.61794    
     18900   11112.012     -15050197       4411.0008      0             -478869.23      386.70886      29662.038      237.1403     
     19000   11179.343     -15051070       4437.7287      0             -478864.73      382.85326      29669.182     -2486.8326    
     19100   11073.15      -15050576       4395.5743      0             -478860.1       382.81247      29733.1        283.97988    
     19200   11322.645     -15050181       4494.6134      0             -478866.4       383.86362      29785.522      469.96099    
     19300   11412.383     -15050223       4530.2357      0             -478876.43      386.0468       29781.247      579.56605    
     19400   11207.772     -15049856       4449.0138      0             -478868.01      382.49928      29777.599     -300.71199    
     19500   11044.506     -15050274       4384.2038      0             -478866.49      385.36582      29686.415      1190.6244    
     19600   11156.063     -15050236       4428.4875      0             -478862.78      385.31123      29643.377     -2157.9684    
     19700   11230.809     -15049535       4458.1585      0             -478867.77      386.35717      29812.921     -1764.9325    
     19800   11188.795     -15050686       4441.4806      0             -478869.22      386.8083       29951.935     -1707.5094    
     19900   11266.157     -15050362       4472.1902      0             -478864.6       387.2758       29977.545     -1911.6158    
     20000   11123.32      -15049680       4415.4897      0             -478867.95      384.58128      29836.24      -1322.5755    
     20100   11104.618     -15049271       4408.066       0             -478858.74      389.77375      29688.075      1140.2012    
     20200   11477.588     -15049678       4556.1193      0             -478871.28      387.6758       29675.422      1461.0626    
     20300   11318.226     -15049738       4492.8593      0             -478859.85      389.81339      29782.631      855.53924    
     20400   11045.06      -15049603       4384.424       0             -478870.51      385.7375       29802.891     -787.6008     
     20500   11044.681     -15049544       4384.2736      0             -478861.53      386.08881      29663.727     -290.91465    
     20600   10823.016     -15050222       4296.2819      0             -478863.33      384.49455      29482.692     -688.3019     
     20700   11363.747     -15050499       4510.9293      0             -478876.39      384.76554      29468.015      1166.0095    
     20800   11231.063     -15050411       4458.2592      0             -478870.54      384.1749       29521.623      258.21641    
     20900   11103.108     -15049843       4407.4665      0             -478855.36      385.08159      29388.312      840.3612     
     21000   11185.885     -15049656       4440.3255      0             -478866.9       386.1292       29439.709      2319.748     
     21100   10881.246     -15049438       4319.3966      0             -478865.37      386.46926      29640.072     -285.54102    
     21200   10948.28      -15050060       4346.0063      0             -478857.4       390.20579      29653.008     -1421.6266    
     21300   11132.099     -15049825       4418.9746      0             -478851.69      384.7968       29460.496     -24.783689    
     21400   11462.66      -15050712       4550.1936      0             -478873.26      383.76612      29289.278      2325.6686    
     21500   11263.366     -15049591       4471.082       0             -478861.1       386.91136      29238.131     -171.13656    
     21600   11210.763     -15050443       4450.2011      0             -478870.39      385.90133      29242.01      -1079.1954    
     21700   11062.282     -15049962       4391.2604      0             -478862.62      385.69863      29306.147      695.71322    
     21800   11273.814     -15049448       4475.2294      0             -478853.86      384.70836      29443.973      994.9619     
     21900   11402.338     -15049787       4526.2483      0             -478857.64      382.97994      29568.804     -1419.637     
     22000   11271.224     -15049940       4474.2014      0             -478878.86      384.08763      29638.532     -372.6403     
     22100   11184.548     -15049990       4439.7947      0             -478861.43      386.28253      29564.448      1068.5811    
     22200   11434.577     -15048928       4539.0455      0             -478851.59      388.03165      29536.493      584.51242    
     22300   11026.039     -15050159       4376.8734      0             -478855.48      387.33245      29593.805      422.45881    
     22400   11184.343     -15049985       4439.7133      0             -478852.66      392.38384      29688.802      1582.3339    
     22500   11297.292     -15050715       4484.5495      0             -478846.67      387.82131      29710.477      2066.2229    
     22600   11298.795     -15049549       4485.1462      0             -478846.97      385.03238      29655.26       1478.584     
     22700   11248.652     -15050216       4465.2412      0             -478856.85      386.1867       29689.859     -1407.2134    
     22800   11192.243     -15049799       4442.8494      0             -478864.53      386.20367      29711.918      871.34529    
     22900   11048.6       -15050017       4385.8292      0             -478857.57      388.2517       29711.521     -1329.4647    
     23000   11254.032     -15049241       4467.377       0             -478854.26      386.67936      29605.571      1063.4155    
     23100   11267.988     -15050079       4472.917       0             -478861.99      385.35565      29666.868     -486.8092     
     23200   11128.388     -15050384       4417.5018      0             -478862.02      385.44207      29580.595      385.07136    
     23300   11311.59      -15049923       4490.2251      0             -478867.71      386.31392      29421.32       495.72411    
     23400   11116.979     -15050231       4412.9729      0             -478865.12      385.61759      29329.854      1784.7987    
     23500   11285.448     -15049605       4479.8478      0             -478864.06      386.64745      29190.296      295.38957    
     23600   11460.651     -15049766       4549.396       0             -478857.33      385.03917      29229.255      469.51069    
     23700   11288.862     -15049701       4481.2031      0             -478868.69      384.58017      29434.973     -644.82138    
     23800   11124.001     -15049341       4415.7601      0             -478855.76      386.24211      29568.27      -1315.5219    
     23900   10875.372     -15049971       4317.0648      0             -478859.81      386.98913      29391.873     -926.53502    
     24000   11067.104     -15050276       4393.1744      0             -478872.61      385.05041      29261.903     -1259.9162    
     24100   11309.615     -15051028       4489.441       0             -478874.08      382.90889      29362.752     -151.418      
     24200   11280.62      -15049560       4477.9314      0             -478873.4       386.77467      29414.382      321.25867    
     24300   10885.438     -15050441       4321.0608      0             -478864.05      388.07366      29472.446     -262.11813    
     24400   11083.185     -15049638       4399.5578      0             -478871.93      385.55952      29527.004      689.01043    
     24500   10998.947     -15049714       4366.1191      0             -478873.73      387.56885      29611.763     -445.55005    
     24600   11032.366     -15050530       4379.3851      0             -478854.37      386.24789      29501.664     -680.71633    
     24700   10940.54      -15049769       4342.9339      0             -478861.36      386.91329      29442.884     -576.31281    
     24800   11098.264     -15049889       4405.5436      0             -478853.14      387.97772      29402.961      2340.0938    
     24900   11280.457     -15048991       4477.8666      0             -478861.81      387.60143      29525.639     -437.81094    
     25000   11316.841     -15051197       4492.3095      0             -478856.22      383.14349      29583.102     -2020.0635    
     25100   11287.357     -15049463       4480.6055      0             -478861.43      384.48767      29553.375     -118.61233    
     25200   11233.416     -15049335       4459.1934      0             -478870.83      388.08695      29546.856      1893.348     
     25300   11259.679     -15050910       4469.6186      0             -478858.77      386.60219      29541.104     -900.35524    
     25400   11133.899     -15050290       4419.6892      0             -478862.51      386.01416      29701.698      534.68021    
     25500   11511.524     -15050826       4569.5905      0             -478855.31      384.65627      29731.378      126.84145    
     25600   11141.234     -15050393       4422.601       0             -478844.64      387.32071      29815.227     -702.96373    
     25700   11171.832     -15050308       4434.7468      0             -478851.07      385.64683      29704.275      878.56765    
     25800   11294.496     -15050280       4483.4395      0             -478858.86      388.03887      29688.647     -411.01493    
     25900   11142.034     -15050107       4422.9187      0             -478873.15      385.14968      29713.444      410.49085    
     26000   11116.998     -15051013       4412.9802      0             -478858.93      383.55827      29679.907     -1325.1841    
     26100   11255.02      -15049949       4467.7694      0             -478870.97      383.85406      29681.945     -935.35201    
     26200   11161.538     -15049950       4430.6609      0             -478865.5       386.16845      29702.33       1045.7001    
     26300   11408.62      -15049464       4528.742       0             -478862.54      387.44273      29646.846     -991.68888    
     26400   11002.737     -15050499       4367.6233      0             -478866.1       384.50141      29632.955      1736.1475    
     26500   11102.348     -15049268       4407.1648      0             -478861.72      386.46372      29728.832      571.76069    
     26600   11205.713     -15049026       4448.1965      0             -478862.89      385.02791      29855.065     -455.19655    
     26700   11391.916     -15049910       4522.1111      0             -478866.44      387.82821      29821.151      1498.9396    
     26800   11226.318     -15049923       4456.3757      0             -478868.74      387.57509      29700.214      2073.4896    
     26900   11231.128     -15049881       4458.2848      0             -478866.26      387.38469      29779.923      111.79166    
     27000   11271.386     -15049422       4474.2658      0             -478871.52      383.66402      29907.234     -709.89499    
     27100   10780.043     -15050648       4279.2235      0             -478844.8       384.83974      29807.125     -553.63898    
     27200   11172.288     -15051018       4434.9282      0             -478863.15      382.42269      29715.48       354.68362    
     27300   11234.1       -15050345       4459.465       0             -478869.96      385.62636      29744.783     -52.709505    
     27400   11365.405     -15050449       4511.5872      0             -478865.88      387.30204      29572.582      609.05225    
     27500   11238.03      -15049635       4461.0248      0             -478860.49      389.54637      29406.894      571.31163    
     27600   11059.802     -15049394       4390.276       0             -478860.91      389.20488      29493.767      1397.3775    
     27700   11255.943     -15049808       4468.1357      0             -478862.45      387.03622      29580.296      399.66955    
     27800   11294.753     -15050146       4483.5415      0             -478879.72      386.71438      29588.875      32.838335    
     27900   11437.128     -15049894       4540.0582      0             -478852.04      388.37177      29584.062      1346.892     
     28000   11592.121     -15049803       4601.584       0             -478868.16      386.30806      29596.724     -223.71771    
     28100   10829.436     -15049694       4298.8304      0             -478853.03      386.61958      29707.158     -2163.7146    
     28200   11192.602     -15050159       4442.9917      0             -478859.95      385.49168      29811.897     -1362.5783    
     28300   11052.48      -15050400       4387.3691      0             -478870.56      387.82469      29734.461      2551.5375    
     28400   11220.767     -15049646       4454.1721      0             -478872.56      386.47573      29681.486      1999.6479    
     28500   11072.21      -15049902       4395.2012      0             -478866.17      388.20885      29713.077      511.45728    
     28600   11028.249     -15050008       4377.7507      0             -478853.36      383.57312      29708.41      -2009.3827    
     28700   11271.856     -15050668       4474.4522      0             -478862.8       383.93267      29659.849     -565.54783    
     28800   11516.766     -15049286       4571.6714      0             -478858.53      387.88784      29613.818     -1014.0155    
     28900   11330.41      -15050088       4497.6959      0             -478855.55      386.30973      29600.755     -305.76933    
     29000   11357.65      -15049992       4508.5089      0             -478863.84      384.71413      29533.456     -676.11616    
     29100   11425.727     -15049818       4535.5326      0             -478874.05      384.92973      29451.772     -938.62772    
     29200   11165.305     -15049892       4432.156       0             -478871.96      389.11802      29497.358      762.99333    
     29300   11244.996     -15050902       4463.7899      0             -478853.66      388.00683      29644.3        661.66095    
     29400   11376.819     -15050475       4516.1182      0             -478860.53      384.8151       29833.003     -610.89847    
     29500   11136.312     -15049992       4420.647       0             -478851.12      388.34213      29880.391      198.26494    
     29600   11283.027     -15049533       4478.8866      0             -478857.62      387.73709      29737         -174.91966    
     29700   11103.595     -15050110       4407.6597      0             -478859.55      386.37716      29644.381      654.97794    
     29800   10964.741     -15050311       4352.5407      0             -478865.26      386.37103      29601.831     -136.75483    
     29900   11216.736     -15049943       4452.5719      0             -478870.48      384.92552      29568.275     -649.921      
     30000   11243.76      -15050152       4463.2996      0             -478865.57      386.86725      29633.25      -808.73884    
     30100   11079.756     -15050270       4398.1965      0             -478859.66      385.67779      29642.535     -146.91383    
     30200   11373.407     -15050918       4514.7637      0             -478858.03      386.45165      29643.564      322.05821    
     30300   10982.163     -15050390       4359.4564      0             -478852.75      386.00289      29611.017     -1649.3214    
     30400   11248.931     -15049548       4465.352       0             -478867.22      385.91148      29688.295      440.41185    
     30500   11203.26      -15050355       4447.2228      0             -478865.41      388.28095      29748.051     -2035.659     
     30600   11176.048     -15050016       4436.4207      0             -478867.06      386.85471      29725.177     -2063.3373    
     30700   11216.167     -15050840       4452.3463      0             -478860.17      385.00213      29681.321     -347.26216    
     30800   11209.441     -15050424       4449.6762      0             -478872.17      385.73841      29700.667     -72.548428    
     30900   10866.708     -15050196       4313.6255      0             -478862.38      385.34626      29847.173     -1155.2583    
     31000   10883.872     -15049847       4320.4389      0             -478858.61      386.61693      29949.429     -1891.2252    
     31100   11362.827     -15050561       4510.5642      0             -478860.36      384.78935      29881.815     -152.0856     
     31200   11317.144     -15050184       4492.4297      0             -478872.96      383.47116      29758.538     -1709.2442    
     31300   11271.443     -15050351       4474.2886      0             -478874.53      387.02065      29801.304      99.401928    
     31400   11256.064     -15050743       4468.1838      0             -478863.91      386.5369       29812.165     -140.17842    
     31500   11177.192     -15050651       4436.8746      0             -478858.66      389.22527      29838.012      1678.2793    
     31600   11310.957     -15049951       4489.9738      0             -478871.32      386.26974      29747.958      101.34259    
     31700   11055.517     -15049197       4388.5747      0             -478845.19      386.04685      29659.647      512.90582    
     31800   11110.743     -15049874       4410.4972      0             -478861.44      385.97398      29546.781      2005.1444    
     31900   11229.631     -15049680       4457.6909      0             -478865.57      386.77197      29541.925      679.76784    
     32000   11051.33      -15050218       4386.9127      0             -478868.97      387.14395      29532.491      639.65962    
     32100   11270.562     -15049973       4473.9385      0             -478868.67      388.25068      29686.438      126.57319    
     32200   11178.664     -15049792       4437.4591      0             -478861.47      383.74764      29716.296     -282.47884    
     32300   11176.406     -15049876       4436.5626      0             -478872.23      387.46665      29656.065     -105.537      
     32400   11270.578     -15050201       4473.9452      0             -478850.7       388.54131      29512.828      106.17479    
     32500   11490.275     -15049630       4561.1555      0             -478858.4       385.87383      29444.486     -1013.9036    
     32600   11206.263     -15050027       4448.4147      0             -478857.16      386.27577      29446.411      1978.7524    
     32700   11246.435     -15051242       4464.3614      0             -478861.38      385.9724       29403.708      715.94123    
     32800   11032.718     -15049692       4379.5245      0             -478861.74      387.52377      29439.914      850.53684    
     32900   11118.192     -15050187       4413.4542      0             -478856.22      386.2694       29419.952     -684.93867    
     33000   11288.179     -15051017       4480.9318      0             -478859.39      383.63629      29439.427      1808.7152    
     33100   10961.557     -15050206       4351.2768      0             -478866.63      384.69912      29514.042     -1559.8481    
     33200   11193.057     -15050077       4443.1724      0             -478871.34      384.24327      29544.866     -486.17883    
     33300   11126.854     -15050442       4416.8926      0             -478858.02      385.52388      29622.694     -923.17744    
     33400   11269.022     -15050894       4473.3274      0             -478865.04      382.69518      29651.784     -3756.9725    
     33500   11145.712     -15050460       4424.3787      0             -478871.71      386.53868      29580.442      176.5322     
     33600   11048.485     -15050064       4385.7834      0             -478872.33      386.8148       29503.079     -1727.0059    
     33700   11221.33      -15050957       4454.3958      0             -478881.49      382.61399      29335.636     -750.97972    
     33800   11235.07      -15049843       4459.8498      0             -478855.63      387.38538      29171.822     -982.49731    
     33900   11372.876     -15049768       4514.553       0             -478851.67      387.92929      29147.995      1684.6564    
     34000   11195.226     -15049487       4444.0334      0             -478867.13      387.3458       29273.434      1623.5734    
     34100   11149.542     -15049851       4425.899       0             -478868.73      386.43544      29386.838     -557.31377    
     34200   11031.848     -15049770       4379.1792      0             -478863.42      387.64337      29372.825     -452.55033    
     34300   10981.376     -15049933       4359.1439      0             -478855.38      386.61958      29236.962      2883.8222    
     34400   11180.239     -15050316       4438.0842      0             -478862.21      385.57236      29236.233      830.26324    
     34500   10957.916     -15050214       4349.8314      0             -478857.44      388.49225      29245.04       1693.7774    
     34600   11161.364     -15049184       4430.5915      0             -478878.52      387.37802      29209.826      360.39391    
     34700   11064.945     -15050147       4392.3173      0             -478856.03      384.95567      29163.696      2450.6391    
     34800   11116.611     -15049555       4412.8267      0             -478880.93      386.36446      29295.479      2733.1587    
     34900   11386.949     -15050408       4520.1395      0             -478855.53      386.56805      29346.27       1490.1467    
     35000   11078.928     -15050166       4397.8679      0             -478871.64      386.24829      29389.35       857.72432    
     35100   11157.635     -15049761       4429.1114      0             -478870.95      386.57344      29380.576      141.61094    
     35200   11060.124     -15048979       4390.4036      0             -478845.76      389.66072      29458.758     -1836.5147    
     35300   11206.709     -15050207       4448.5916      0             -478853.97      389.30867      29507.118      870.18849    
     35400   11000.351     -15049595       4366.6761      0             -478854.87      386.08319      29499.075     -538.09169    
     35500   11420.353     -15049645       4533.3994      0             -478849.24      390.018        29448.231      1171.2412    
     35600   11227.805     -15050042       4456.966       0             -478864.73      387.82561      29489.967     -307.09805    
     35700   11316.78      -15050566       4492.2854      0             -478859.71      388.14108      29452.716      143.25902    
     35800   11132.423     -15049824       4419.1035      0             -478865.84      385.39528      29348.815     -394.57386    
     35900   11058.361     -15050114       4389.7039      0             -478865.29      387.57075      29216.439      1528.9833    
     36000   10990.612     -15049468       4362.8103      0             -478854.94      387.42814      29173.416     -1110.493     
     36100   11212.972     -15049419       4451.0778      0             -478869.54      384.21335      29084.516      22.674585    
     36200   11174.798     -15050351       4435.9243      0             -478861.12      383.04327      29193.8        131.11915    
     36300   11123.842     -15049792       4415.6972      0             -478861.11      384.28259      29233.197      786.44272    
     36400   11204.466     -15049623       4447.7013      0             -478867.77      385.64138      29278.912      517.67713    
     36500   11331.355     -15051255       4498.0709      0             -478861.49      385.01563      29431.785     -174.12021    
     36600   11210.389     -15050121       4450.0524      0             -478862.43      386.90917      29471.884     -26.593566    
     36700   11092.482     -15049981       4403.2482      0             -478873.83      384.54717      29484.226      582.22226    
     36800   11027.838     -15050090       4377.5875      0             -478844.19      385.23989      29450.519     -610.51023    
     36900   11276.303     -15050466       4476.2177      0             -478861.44      384.78872      29404.442      454.82314    
     37000   11359.084     -15049331       4509.0782      0             -478849.5       387.08878      29508.984      1351.5824    
     37100   11449.629     -15050261       4545.0207      0             -478860.04      386.35654      29689.728     -330.65789    
     37200   11043.429     -15049772       4383.7763      0             -478851.05      390.59683      29828.463     -688.35396    
     37300   11069.998     -15049922       4394.3234      0             -478864.24      386.30874      29864.67       761.755      
     37400   11418.575     -15049517       4532.6938      0             -478877.89      386.63727      29864.888     -124.65962    
     37500   11095.987     -15050303       4404.6396      0             -478867.66      385.19311      29862.983      437.59266    
     37600   11458.86      -15049941       4548.6852      0             -478864.12      383.63336      29824.393     -2451.4762    
     37700   11335.553     -15049219       4499.7374      0             -478856.05      387.04951      29828.24      -1094.256     
     37800   11192.94      -15050235       4443.126       0             -478858.91      385.63692      29756.679     -1449.9626    
     37900   11319.816     -15050419       4493.4903      0             -478859.74      384.34742      29682.413     -890.06205    
     38000   11021.999     -15049953       4375.2698      0             -478860.08      387.25662      29611.44       270.49704    
     38100   11451.218     -15049860       4545.6514      0             -478863.07      386.39026      29608.933     -905.36509    
     38200   10985.377     -15049617       4360.7324      0             -478849.65      386.76439      29637.204     -681.20167    
     38300   11493.097     -15049601       4562.2756      0             -478856.39      385.17987      29708.596     -482.93215    
     38400   11065.456     -15050854       4392.5201      0             -478845.62      385.61242      29694.85       1235.0514    
     38500   11457.117     -15049880       4547.9932      0             -478852.06      388.60111      29751.687     -1128.1003    
     38600   10870.314     -15050003       4315.0572      0             -478855.86      388.75189      29750.746     -952.90233    
     38700   10920.682     -15050559       4335.0509      0             -478868.58      387.90532      29601.078      1201.788     
     38800   11082.809     -15050431       4399.4088      0             -478856.52      386.03376      29464.855      1530.6452    
     38900   10991.503     -15050543       4363.1639      0             -478854.92      384.86347      29477.078      528.85629    
     39000   11261.277     -15050158       4470.2531      0             -478853.99      386.07779      29560.601      634.29798    
     39100   10961.022     -15049207       4351.0644      0             -478872.7       384.59906      29627.153      1849.608     
     39200   11341.376     -15049265       4502.049       0             -478855.89      388.24244      29620.455     -907.55372    
     39300   11443.146     -15049884       4542.4474      0             -478874.97      385.98726      29681.219      1182.3706    
     39400   11296.347     -15049575       4484.1742      0             -478872.68      387.96481      29797.099      567.41788    
     39500   11447.855     -15050115       4544.3164      0             -478861.76      385.60255      29894.802     -1718.4588    
     39600   11202.44      -15050145       4446.897       0             -478863.58      386.87076      29921.571     -726.88865    
     39700   11085.653     -15050263       4400.5376      0             -478866.78      386.52061      29785.31      -976.32217    
     39800   11249.653     -15049833       4465.6385      0             -478875.68      384.99474      29609.938      651.70388    
     39900   11407.894     -15050314       4528.4538      0             -478870.89      386.22751      29519.269      1206.7941    
     40000   11252.425     -15050079       4466.7392      0             -478871.92      384.99488      29488.475      361.61824    
     40100   11336.681     -15049983       4500.1853      0             -478864         387.56952      29517.819      170.96386    
     40200   11273.064     -15050173       4474.9321      0             -478879.43      384.60097      29551.468     -1770.4726    
     40300   11242.144     -15050650       4462.658       0             -478848.95      386.63144      29560.055     -702.28142    
     40400   11324.23      -15050056       4495.2428      0             -478870.07      388.658        29643.891      994.95881    
     40500   11345.86      -15050091       4503.8287      0             -478871.19      387.23937      29648.641      353.58991    
     40600   11344.052     -15050348       4503.1109      0             -478862.1       384.38889      29508.347     -146.78699    
     40700   11457.523     -15051442       4548.1542      0             -478854.63      387.94698      29349.732      1863.3209    
     40800   11175.553     -15049018       4436.2241      0             -478857.78      387.47187      29442.065     -1006.4367    
     40900   11509.723     -15049363       4568.8755      0             -478856.4       386.31155      29539.869      1661.536     
     41000   11446.023     -15050052       4543.5895      0             -478868.34      384.31615      29608.241     -334.71635    
     41100   11158.634     -15049328       4429.5082      0             -478859.16      389.50249      29692.564      1310.0381    
     41200   11157.345     -15048987       4428.9962      0             -478844.28      388.04817      29792.297     -369.88519    
     41300   11053.393     -15050587       4387.7316      0             -478859.14      384.31616      29850.781     -1618.4496    
     41400   11231.931     -15048989       4458.6038      0             -478850.69      389.0759       29761.457      57.447909    
     41500   10834.323     -15050023       4300.7702      0             -478870.51      385.60466      29740.574      342.25862    
     41600   11166.294     -15050101       4432.5487      0             -478865.26      383.22412      29633.529      1436.7807    
     41700   11333.966     -15050034       4499.1073      0             -478840.24      389.01304      29638.42      -1451.5389    
     41800   11272.817     -15050510       4474.8337      0             -478865.03      386.61727      29539.72       653.28576    
     41900   11324.842     -15049659       4495.4854      0             -478856.07      385.73516      29536.581      939.00941    
     42000   11359.387     -15049410       4509.1983      0             -478859.7       387.62987      29417.197      200.91514    
     42100   11175.112     -15050788       4436.0492      0             -478863.9       385.00388      29458.824     -821.6705     
     42200   11109.063     -15050093       4409.8304      0             -478873.59      389.12377      29603.946      672.09575    
     42300   11375.317     -15049735       4515.5219      0             -478876.06      384.02106      29656.109     -701.25198    
     42400   11177.506     -15050049       4436.9994      0             -478872.81      384.37812      29655.141     -105.26292    
     42500   11306.047     -15049611       4488.0247      0             -478868.16      383.69637      29599.893     -1388.694     
     42600   11090.053     -15049684       4402.2841      0             -478857.47      385.25912      29472.062      444.52847    
     42700   11229.477     -15050721       4457.6297      0             -478866.6       383.56329      29373.591      335.2878     
     42800   10985.139     -15050042       4360.6377      0             -478860.39      384.59487      29368.697      1.1920698    
     42900   10960.739     -15050502       4350.9518      0             -478868.8       388.99262      29482.538      244.19619    
     43000   11279.305     -15050365       4477.4091      0             -478869.26      385.33315      29605.386      1292.5971    
     43100   11063.595     -15051058       4391.7815      0             -478862.26      383.59503      29620.17       151.91848    
     43200   11076.281     -15049359       4396.8174      0             -478859.58      384.51896      29594.928     -885.67484    
     43300   11229.495     -15050760       4457.6367      0             -478866.75      388.34634      29484.826      729.74839    
     43400   11018.428     -15050196       4373.8522      0             -478854.39      386.07949      29543.792     -1359.6762    
     43500   11111.299     -15050182       4410.7179      0             -478870.89      387.34555      29578.486      874.62847    
     43600   11350.491     -15050144       4505.6673      0             -478854.75      386.93222      29503.593     -1151.1261    
     43700   11324.386     -15050079       4495.3046      0             -478860.93      388.2114       29426.595      319.71047    
     43800   11168.136     -15049956       4433.2801      0             -478865.55      385.27503      29440.122      516.78876    
     43900   11128.644     -15050250       4417.6033      0             -478867.63      384.4183       29497.851     -58.761946    
     44000   11210.711     -15050546       4450.1805      0             -478850.55      387.91109      29635.93       563.49157    
     44100   11258.87      -15050180       4469.2973      0             -478866.13      383.73362      29819.287     -2107.3695    
     44200   11051.873     -15049813       4387.1282      0             -478859.44      385.94762      29856.88      -935.91063    
     44300   11441.462     -15049519       4541.7788      0             -478859.96      388.3988       29732.946     -210.76291    
     44400   11367.014     -15049754       4512.226       0             -478855.17      386.31472      29786.619      464.20032    
     44500   11113.544     -15049287       4411.6092      0             -478874.82      384.67244      29711.749      728.36628    
     44600   11222.782     -15049859       4454.9719      0             -478858.65      386.62386      29618.159     -162.50421    
     44700   11035.844     -15050116       4380.7656      0             -478860.55      387.50759      29602.351      1788.0599    
     44800   10883.5       -15050433       4320.2914      0             -478867.81      383.83709      29621.158      1221.2558    
     44900   11174.264     -15049974       4435.7123      0             -478876.16      383.70554      29693.554      328.96634    
     45000   11259.299     -15050108       4469.4677      0             -478859.74      385.99954      29808.483      804.06461    
     45100   11164.31      -15049500       4431.7611      0             -478873.25      383.86338      29844.272     -209.56025    
     45200   11089.106     -15050112       4401.9084      0             -478864.69      385.50943      29755.497     -2113.0173    
     45300   11201.874     -15049232       4446.6725      0             -478862.67      386.66439      29659.129     -702.07565    
     45400   11185.832     -15049970       4440.3045      0             -478854.73      385.20795      29604.06       1078.4047    
     45500   11233.38      -15049232       4459.1791      0             -478866.31      385.84058      29532.109     -1515.1278    
     45600   11062.706     -15049533       4391.4287      0             -478866.59      385.32444      29494.462      850.07576    
     45700   11286.493     -15050754       4480.2625      0             -478863.68      385.21709      29565.753     -480.62943    
     45800   11529.721     -15049483       4576.8138      0             -478860.31      387.02235      29710.132     -27.554968    
     45900   11262.668     -15050220       4470.8052      0             -478865.61      383.89277      29822.056      971.17409    
     46000   11281.058     -15049595       4478.1053      0             -478850.53      387.8763       29856.046      771.32299    
     46100   11202.274     -15049706       4446.8313      0             -478867.05      386.1085       29814.613     -875.00181    
     46200   11277.374     -15049475       4476.6426      0             -478870.2       388.55085      29760.416      1047.7565    
     46300   10881.864     -15049222       4319.642       0             -478854.34      383.13235      29763.198      507.55575    
     46400   11379.496     -15049494       4517.1809      0             -478845.37      385.37641      29829.717     -696.32594    
     46500   11279.07      -15049401       4477.3159      0             -478866.54      382.50869      29968.688     -1425.0057    
     46600   11246.563     -15049438       4464.412       0             -478853         383.79164      30016.468     -2202.2043    
     46700   11368.135     -15048950       4512.671       0             -478873.39      388.72895      30051.024      27.47206     
     46800   11070.773     -15049815       4394.6307      0             -478866.63      384.78452      30020.874      156.9405     
     46900   11466.409     -15050531       4551.6819      0             -478860.94      386.86941      29932.195     -756.1111     
     47000   11463.668     -15050351       4550.5937      0             -478845.15      386.9634       29898.571     -502.0954     
     47100   11317.531     -15049803       4492.5835      0             -478857.01      383.59491      29819.24       317.3843     
[...]
    191900   10973.882     -15050259       4356.1691      0             -478866.13      385.85437      29568.129      692.87869    
    192000   11048.704     -15051078       4385.8705      0             -478866.92      389.45589      29497.165     -278.47534    
    192100   11450.017     -15050463       4545.1747      0             -478841.74      383.82456      29491.937      885.2058     
    192200   11515.973     -15049251       4571.3564      0             -478858.39      388.00342      29527.583     -972.51749    
    192300   11332.321     -15050023       4498.4545      0             -478857.51      384.62072      29559.688     -1991.5169    
    192400   10952.82      -15049213       4347.8084      0             -478876.45      385.69842      29533.642      199.37289    
    192500   11180.038     -15050057       4438.0045      0             -478864.12      386.28573      29503.495     -372.64326    
    192600   11426.93      -15049983       4536.0103      0             -478869.93      384.99058      29551.462      662.32513    
    192700   11105.067     -15049905       4408.244       0             -478866.52      385.86176      29563.457      73.979141    
    192800   11092.244     -15049996       4403.1538      0             -478874.66      386.52044      29491.635      1083.5571    
    192900   11472.096     -15049715       4553.939       0             -478873.78      385.16367      29524.552     -1705.6868    
    193000   11504.581     -15048339       4566.8343      0             -478863.37      389.10028      29543.365     -376.5037     
    193100   11474.697     -15050107       4554.9719      0             -478880.91      386.66988      29648.512     -314.09951    
    193200   11085.029     -15050008       4400.2899      0             -478856.68      385.66953      29528.274     -1177.72      
    193300   11126.58      -15050572       4416.7837      0             -478862.34      385.1599       29455.304     -972.91074    
    193400   11257.531     -15048684       4468.766       0             -478866.43      385.146        29469.8        414.33974    
    193500   10884.311     -15049936       4320.6134      0             -478850.51      387.52496      29578.033      120.62689    
    193600   11442.247     -15050765       4542.0903      0             -478858.2       385.22602      29506.18      -175.48623    
    193700   10895.297     -15050740       4324.9743      0             -478861.09      385.95688      29382.134     -291.40558    
    193800   11035.318     -15049354       4380.5567      0             -478844.65      385.27087      29375.674     -913.83181    
    193900   11579.944     -15050043       4596.7503      0             -478868.65      384.53181      29418.868      503.10993    
    194000   11194.388     -15048758       4443.701       0             -478863.62      385.25916      29369.783     -278.60714    
    194100   11445.514     -15050213       4543.3871      0             -478871.67      387.30124      29222.318      1818.7306    
    194200   10981.341     -15049846       4359.1299      0             -478862.15      387.47387      29196.618     -1981.8092    
    194300   11088.696     -15049496       4401.7455      0             -478873.86      386.863        29285.112     -268.98049    
    194400   11067.092     -15050494       4393.1695      0             -478870.97      383.60274      29094.667     -1999.763     
    194500   11329.333     -15050364       4497.2683      0             -478874.92      383.86453      29160.506     -664.65434    
    194600   11452.539     -15050191       4546.1758      0             -478859.9       386.94564      29313.262      750.77102    
    194700   11285.786     -15050009       4479.9818      0             -478862.28      387.7843       29502.006     -233.19094    
    194800   11260.478     -15050189       4469.9359      0             -478856.73      386.73436      29607.598     -1217.5004    
    194900   11200.66      -15050114       4446.1905      0             -478866.72      388.00131      29619.336     -2661.8747    
    195000   11144.024     -15050046       4423.7086      0             -478856.57      386.22445      29428.469      1798.4361    
    195100   11371.483     -15050223       4514.0002      0             -478870.25      384.95594      29346.147      965.01436    
    195200   11305.566     -15049576       4487.834       0             -478865.88      383.93751      29516.236     -1077.2301    
    195300   11045.162     -15049875       4384.4643      0             -478863.86      386.21219      29618.1       -101.96993    
    195400   11159.573     -15050562       4429.8806      0             -478868.37      384.22355      29597.261     -1375.2139    
    195500   11060.932     -15049759       4390.7244      0             -478867         385.91271      29562.551      206.26291    
    195600   11247.354     -15048689       4464.726       0             -478855.38      387.34545      29573.681     -1120.0304    
    195700   11284.318     -15050843       4479.3991      0             -478854.79      387.57598      29519.123      934.02588    
    195800   11241.801     -15050019       4462.5216      0             -478863.95      389.47767      29534.049      99.267572    
    195900   11423.619     -15050298       4534.696       0             -478877.8       386.98089      29630.621      343.47871    
    196000   11461.602     -15050003       4549.7734      0             -478869.86      382.74542      29597.548     -319.34054    
    196100   11408.437     -15049112       4528.6694      0             -478857.71      385.11078      29432.682      119.97558    
    196200   11017.353     -15050512       4373.4252      0             -478844.23      385.40307      29455.866      358.67855    
    196300   11120.942     -15049536       4414.5458      0             -478862.7       384.75531      29521.693      131.14598    
    196400   11159.612     -15050848       4429.896       0             -478851.9       383.77763      29484.995     -128.36524    
    196500   11250.567     -15049528       4466.0014      0             -478844.58      383.45467      29518.492     -638.0451     
    196600   11093.193     -15050771       4403.5306      0             -478871.51      386.48011      29505.492      339.34982    
    196700   11323.795     -15049920       4495.07        0             -478868.78      384.68846      29566.062     -1366.143     
    196800   11231.453     -15049378       4458.414       0             -478871.94      388.44082      29606.629     -525.32813    
    196900   11232.25      -15049764       4458.7303      0             -478865.8       385.01404      29617.576      89.717295    
    197000   11172.879     -15049716       4435.1628      0             -478854.17      388.1423       29662.067     -367.78866    
    197100   11278.871     -15049857       4477.2371      0             -478858.04      386.42896      29743.318      883.58457    
    197200   11304.941     -15049206       4487.5858      0             -478849.19      389.65154      29741.052     -162.43741    
    197300   11241.23      -15050804       4462.2951      0             -478870.17      383.95753      29584.835     -1199.2421    
    197400   11149.053     -15049429       4425.7046      0             -478853.15      384.31474      29499.746      1006.3674    
    197500   11284.683     -15049770       4479.5443      0             -478850.75      389.40252      29561.399      2713.9127    
    197600   11302.271     -15049184       4486.526       0             -478865.39      386.82268      29694.509      478.75035    
    197700   11138.433     -15049908       4421.4891      0             -478870.01      385.74246      29771.055      1261.7476    
    197800   11214.243     -15049834       4451.5824      0             -478848.86      387.6458       29729.081     -1430.0325    
    197900   11413.718     -15049358       4530.7657      0             -478869.27      386.82992      29619.855     -1045.2527    
    198000   11189.437     -15049640       4441.7353      0             -478858.29      386.31382      29564.754      648.54646    
    198100   11347.018     -15048494       4504.2884      0             -478860.52      388.35207      29560.157     -221.01811    
    198200   11160.22      -15050509       4430.1375      0             -478864.72      383.77375      29657.65       405.34004    
    198300   11282.2       -15049593       4478.5586      0             -478876.68      384.99481      29668.69      -1486.8914    
    198400   11204.826     -15049831       4447.8443      0             -478858.97      385.78438      29719.698     -523.90842    
    198500   11331.14      -15050003       4497.9854      0             -478861.54      385.73056      29671.435     -25.261616    
    198600   11042.506     -15049425       4383.4099      0             -478867.92      387.32066      29688.438     -768.04703    
    198700   11362.999     -15050197       4510.6325      0             -478870.44      384.47414      29659.038      402.99684    
    198800   11206.164     -15050177       4448.3755      0             -478871.63      383.36103      29725.071     -575.83337    
    198900   11371.488     -15049477       4514.0022      0             -478868.55      383.80013      29788.583     -315.4578     
    199000   11052.853     -15050080       4387.5173      0             -478871.37      387.64831      29874.933     -356.81202    
    199100   11238.27      -15049991       4461.12        0             -478864.74      384.63551      29820.984      258.11903    
    199200   11265.72      -15049735       4472.0165      0             -478871.81      386.3832       29751.688     -1337.4481    
    199300   11081.636     -15049574       4398.9432      0             -478851.93      386.59774      29702.378     -80.778006    
    199400   11114.531     -15050228       4412.0008      0             -478858.68      387.11824      29641.948     -788.24375    
    199500   11226.518     -15049786       4456.4552      0             -478875.56      387.08164      29577.857      392.07848    
    199600   11200.708     -15049822       4446.2096      0             -478865.92      388.93158      29624.779      295.17201    
    199700   11286.673     -15049697       4480.3341      0             -478870.53      386.13908      29740.015     -1289.6751    
    199800   11238.069     -15050317       4461.0401      0             -478856.18      387.37659      29753.837     -74.640694    
    199900   11131.948     -15049883       4418.9147      0             -478851.23      388.32575      29675.002      422.99145    
    200000   11206.213     -15049813       4448.3947      0             -478855.05      385.31597      29678.936      77.484802    
Loop time of 93318.5 on 1 procs for 200000 steps with 4096 atoms

Performance: 0.093 ns/day, 259.218 hours/ns, 2.143 timesteps/s, 8.779 katom-step/s
99.6% CPU use with 1 MPI tasks x 1 OpenMP threads

MPI task timing breakdown:
Section |  min time  |  avg time  |  max time  |%varavg| %total
---------------------------------------------------------------
Pair    | 10877      | 10877      | 10877      |   0.0 | 11.66
Bond    | 0.21218    | 0.21218    | 0.21218    |   0.0 |  0.00
Kspace  | 17556      | 17556      | 17556      |   0.0 | 18.81
Neigh   | 1154.1     | 1154.1     | 1154.1     |   0.0 |  1.24
Comm    | 14.743     | 14.743     | 14.743     |   0.0 |  0.02
Output  | 280.06     | 280.06     | 280.06     |   0.0 |  0.30
Modify  | 63432      | 63432      | 63432      |   0.0 | 67.97
Other   |            | 4.688      |            |       |  0.01

Nlocal:           4096 ave        4096 max        4096 min
Histogram: 1 0 0 0 0 0 0 0 0 0
Nghost:           9687 ave        9687 max        9687 min
Histogram: 1 0 0 0 0 0 0 0 0 0
Neighs:              0 ave           0 max           0 min
Histogram: 1 0 0 0 0 0 0 0 0 0
FullNghs:  1.05939e+06 ave 1.05939e+06 max 1.05939e+06 min
Histogram: 1 0 0 0 0 0 0 0 0 0

Total # of neighbors = 1059394
Ave neighs/atom = 258.64111
Ave special neighs/atom = 0.5
Neighbor list builds = 20000
Dangerous builds not checked

write_data      final_data/final_${ibead}.lmp nocoeff
write_data      final_data/final_01.lmp nocoeff
System init for write_data ...
PPPM initialization ...
  using 12-bit tables for long-range coulomb
  G vector (1/distance) = 0.4
  grid = 64 64 64
  stencil order = 5
  estimated absolute RMS force accuracy = 0.35096686
  estimated relative force accuracy = 0.024373299
  using double precision FFTW3
  3d grid and FFT values/proc = 389017 262144
WARNING: Interaction between types 1 and 3 is set with deepmd, but will be ignored.
 Deepmd model has only 2 types, it only computes the mulitbody interaction of types: 1-2. (/global/homes/k/kehanc/Software/DeePMD/deepmd-kit/source/lmp/pair_base.cpp:446)
WARNING: Interaction between types 2 and 3 is set with deepmd, but will be ignored.
 Deepmd model has only 2 types, it only computes the mulitbody interaction of types: 1-2. (/global/homes/k/kehanc/Software/DeePMD/deepmd-kit/source/lmp/pair_base.cpp:446)
WARNING: Interaction between types 3 and 3 is set with deepmd, but will be ignored.
 Deepmd model has only 2 types, it only computes the mulitbody interaction of types: 1-2. (/global/homes/k/kehanc/Software/DeePMD/deepmd-kit/source/lmp/pair_base.cpp:446)
Generated 0 of 3 mixed pair_coeff terms from geometric mixing rule
Initializing PI Langevin equation thermostat...
  Bead ID    |    omega    |    tau    |    c1    |    c2
      0     0.00000000e+00 5.00000000e-02 9.95012479e-01 9.97505201e-02
      1     2.87446940e+02 1.73945146e-03 8.66127225e-01 4.99823599e-01
      2     5.72125608e+02 8.73933963e-04 7.51215435e-01 6.60057096e-01
      3     8.51294394e+02 5.87340881e-04 6.53346804e-01 7.57058752e-01
      4     1.12226475e+03 4.45527671e-04 5.70562607e-01 8.21254109e-01
      5     1.38242708e+03 3.61682729e-04 5.00967755e-01 8.65465949e-01
      6     1.62927589e+03 3.06884797e-04 4.42799617e-01 8.96620599e-01
      7     1.86043387e+03 2.68754513e-04 3.94468126e-01 9.18909624e-01
      8     2.07367487e+03 2.41117838e-04 3.54574276e-01 9.35027851e-01
      9     2.26694523e+03 2.20561129e-04 3.21913431e-01 9.46769108e-01
      10     2.43838368e+03 2.05053866e-04 2.95468856e-01 9.55352372e-01
      11     2.58633916e+03 1.93323446e-04 2.74399671e-01 9.61615734e-01
      12     2.70938678e+03 1.84543604e-04 2.58026396e-01 9.66137868e-01
      13     2.80634152e+03 1.78167909e-04 2.45816302e-01 9.69316432e-01
      14     2.87626966e+03 1.73836273e-04 2.37370081e-01 9.71419294e-01
      15     2.91849776e+03 1.71321016e-04 2.32410778e-01 9.72617721e-01
      16     2.93261912e+03 1.70496058e-04 2.30775579e-01 9.73007005e-01
      17     2.91849776e+03 1.71321016e-04 2.32410778e-01 9.72617721e-01
      18     2.87626966e+03 1.73836273e-04 2.37370081e-01 9.71419294e-01
      19     2.80634152e+03 1.78167909e-04 2.45816302e-01 9.69316432e-01
      20     2.70938678e+03 1.84543604e-04 2.58026396e-01 9.66137868e-01
      21     2.58633916e+03 1.93323446e-04 2.74399671e-01 9.61615734e-01
      22     2.43838368e+03 2.05053866e-04 2.95468856e-01 9.55352372e-01
      23     2.26694523e+03 2.20561129e-04 3.21913431e-01 9.46769108e-01
      24     2.07367487e+03 2.41117838e-04 3.54574276e-01 9.35027851e-01
      25     1.86043387e+03 2.68754513e-04 3.94468126e-01 9.18909624e-01
      26     1.62927589e+03 3.06884797e-04 4.42799617e-01 8.96620599e-01
      27     1.38242708e+03 3.61682729e-04 5.00967755e-01 8.65465949e-01
      28     1.12226475e+03 4.45527671e-04 5.70562607e-01 8.21254109e-01
      29     8.51294394e+02 5.87340881e-04 6.53346804e-01 7.57058752e-01
      30     5.72125608e+02 8.73933963e-04 7.51215435e-01 6.60057096e-01
      31     2.87446940e+02 1.73945146e-03 8.66127225e-01 4.99823599e-01
  PILE_L thermostat successfully initialized!

WARNING: Neighbor exclusions used with KSpace solver may give inconsistent Coulombic energies (src/neighbor.cpp:659)
write_restart   final_restart/restart_${ibead}.lmp
write_restart   final_restart/restart_01.lmp
System init for write_restart ...
PPPM initialization ...
  using 12-bit tables for long-range coulomb
  G vector (1/distance) = 0.4
  grid = 64 64 64
  stencil order = 5
  estimated absolute RMS force accuracy = 0.35096686
  estimated relative force accuracy = 0.024373299
  using double precision FFTW3
  3d grid and FFT values/proc = 389017 262144
WARNING: Interaction between types 1 and 3 is set with deepmd, but will be ignored.
 Deepmd model has only 2 types, it only computes the mulitbody interaction of types: 1-2. (/global/homes/k/kehanc/Software/DeePMD/deepmd-kit/source/lmp/pair_base.cpp:446)
WARNING: Interaction between types 2 and 3 is set with deepmd, but will be ignored.
 Deepmd model has only 2 types, it only computes the mulitbody interaction of types: 1-2. (/global/homes/k/kehanc/Software/DeePMD/deepmd-kit/source/lmp/pair_base.cpp:446)
WARNING: Interaction between types 3 and 3 is set with deepmd, but will be ignored.
 Deepmd model has only 2 types, it only computes the mulitbody interaction of types: 1-2. (/global/homes/k/kehanc/Software/DeePMD/deepmd-kit/source/lmp/pair_base.cpp:446)
Generated 0 of 3 mixed pair_coeff terms from geometric mixing rule
Initializing PI Langevin equation thermostat...
  Bead ID    |    omega    |    tau    |    c1    |    c2
      0     0.00000000e+00 5.00000000e-02 9.95012479e-01 9.97505201e-02
      1     2.87446940e+02 1.73945146e-03 8.66127225e-01 4.99823599e-01
      2     5.72125608e+02 8.73933963e-04 7.51215435e-01 6.60057096e-01
      3     8.51294394e+02 5.87340881e-04 6.53346804e-01 7.57058752e-01
      4     1.12226475e+03 4.45527671e-04 5.70562607e-01 8.21254109e-01
      5     1.38242708e+03 3.61682729e-04 5.00967755e-01 8.65465949e-01
      6     1.62927589e+03 3.06884797e-04 4.42799617e-01 8.96620599e-01
      7     1.86043387e+03 2.68754513e-04 3.94468126e-01 9.18909624e-01
      8     2.07367487e+03 2.41117838e-04 3.54574276e-01 9.35027851e-01
      9     2.26694523e+03 2.20561129e-04 3.21913431e-01 9.46769108e-01
      10     2.43838368e+03 2.05053866e-04 2.95468856e-01 9.55352372e-01
      11     2.58633916e+03 1.93323446e-04 2.74399671e-01 9.61615734e-01
      12     2.70938678e+03 1.84543604e-04 2.58026396e-01 9.66137868e-01
      13     2.80634152e+03 1.78167909e-04 2.45816302e-01 9.69316432e-01
      14     2.87626966e+03 1.73836273e-04 2.37370081e-01 9.71419294e-01
      15     2.91849776e+03 1.71321016e-04 2.32410778e-01 9.72617721e-01
      16     2.93261912e+03 1.70496058e-04 2.30775579e-01 9.73007005e-01
      17     2.91849776e+03 1.71321016e-04 2.32410778e-01 9.72617721e-01
      18     2.87626966e+03 1.73836273e-04 2.37370081e-01 9.71419294e-01
      19     2.80634152e+03 1.78167909e-04 2.45816302e-01 9.69316432e-01
      20     2.70938678e+03 1.84543604e-04 2.58026396e-01 9.66137868e-01
      21     2.58633916e+03 1.93323446e-04 2.74399671e-01 9.61615734e-01
      22     2.43838368e+03 2.05053866e-04 2.95468856e-01 9.55352372e-01
      23     2.26694523e+03 2.20561129e-04 3.21913431e-01 9.46769108e-01
      24     2.07367487e+03 2.41117838e-04 3.54574276e-01 9.35027851e-01
      25     1.86043387e+03 2.68754513e-04 3.94468126e-01 9.18909624e-01
      26     1.62927589e+03 3.06884797e-04 4.42799617e-01 8.96620599e-01
      27     1.38242708e+03 3.61682729e-04 5.00967755e-01 8.65465949e-01
      28     1.12226475e+03 4.45527671e-04 5.70562607e-01 8.21254109e-01
      29     8.51294394e+02 5.87340881e-04 6.53346804e-01 7.57058752e-01
      30     5.72125608e+02 8.73933963e-04 7.51215435e-01 6.60057096e-01
      31     2.87446940e+02 1.73945146e-03 8.66127225e-01 4.99823599e-01
  PILE_L thermostat successfully initialized!

WARNING: Neighbor exclusions used with KSpace solver may give inconsistent Coulombic energies (src/neighbor.cpp:659)
Total wall time: 25:55:23
