LAMMPS (2 Aug 2023)
Running on 1 partitions of processors
