384
# CELL(abcABC): 15.483320 15.483320 15.483320 90.0 90.0 90.0 Traj: positions{angstrom} cell{angstrom} Step: 16000 Bead: 0
O       3.550140000000000     -5.055480000000000     13.472700000000000
O      10.942900000000000      4.916800000000000     16.015400000000000
O       8.994940000000000      6.819180000000000     16.016700000000000
O       6.757080000000000     -1.289400000000000      7.850950000000000
O      14.220900000000000     17.363900000000001     20.380500000000001
O       2.632260000000000     -2.541670000000000      3.597500000000000
O      15.037900000000000     -2.555640000000000     -0.405931000000000
O      -1.408000000000000     14.534000000000001     13.178400000000000
O      -2.420380000000000     -6.277390000000000      7.791600000000000
O       3.348360000000000     14.942900000000000     -1.905050000000000
O      14.265700000000001     -2.485590000000000      4.587140000000000
O       2.054430000000000     16.018400000000000      9.264849999999999
O       9.454850000000000      4.193770000000000      2.875170000000000
O      14.769600000000001     -1.211580000000000      6.911160000000000
O      16.116099999999999      2.934160000000000      9.287509999999999
O      12.222899999999999     -4.811410000000000     13.955200000000000
O       5.674130000000000     19.986400000000000     13.787100000000001
O      12.825799999999999      2.972200000000000      2.888260000000000
O      12.161099999999999      4.336720000000000      7.426870000000000
O      18.586300000000001      9.162680000000000     -5.871770000000000
O      -8.586919999999999     19.211400000000001      5.537280000000000
O      11.584700000000000    -10.347099999999999     10.076100000000000
O      17.537500000000001     11.933800000000000     11.722799999999999
O       5.868720000000000     14.005300000000000     -1.211600000000000
O       8.797720000000000      4.951850000000000      9.349539999999999
O      -3.864730000000000      9.824759999999999     10.024200000000000
O       6.474870000000000      9.540690000000000      4.148530000000000
O       0.157275000000000      6.879900000000000     10.497500000000000
O      31.841600000000000     14.587899999999999     -3.870650000000000
O      11.177700000000000     11.987500000000001     11.939100000000000
O       5.275440000000000     10.108400000000000      8.552630000000001
O     -10.486900000000000     20.661300000000001      9.656810000000000
O       5.474940000000000      4.073010000000000      1.108530000000000
O       3.417020000000000      8.151120000000001     -3.396200000000000
O       4.229570000000000     -0.565077000000000      2.320230000000000
O       3.489040000000000     16.689299999999999      4.432270000000000
O      -0.590029000000000     21.857800000000001      0.243905000000000
O       2.935900000000000      6.434510000000000     17.305299999999999
O       7.789690000000000     14.511400000000000     -2.999610000000000
O      13.147000000000000      8.349180000000000     16.634599999999999
O      -0.316931000000000      7.589220000000000      7.897050000000000
O      13.705399999999999     16.823200000000000     -1.168460000000000
O      -2.931900000000000     10.989800000000001      5.681360000000000
O      14.791200000000000     10.449100000000000     14.076000000000001
O      20.902999999999999     -3.421290000000000      6.709400000000000
O      13.846100000000000     11.892099999999999     10.590800000000000
O       1.629660000000000     -4.035200000000000      8.147340000000000
O       8.643599999999999     16.364799999999999      3.149310000000000
O       4.042940000000000      0.562456000000000     11.208200000000000
O       9.456130000000000      9.473549999999999      8.497010000000000
O      -2.669800000000000     14.039800000000000     17.686599999999999
O      12.695000000000000      0.568376000000000      7.178320000000000
O       8.350860000000001     13.392700000000000      3.104080000000000
O       1.985350000000000      0.427802000000000      0.747079000000000
O       3.174170000000000      9.926170000000001     16.373200000000001
O      15.045999999999999      9.948430000000000      2.281890000000000
O      -5.612550000000000     -0.932812000000000     14.206500000000000
O      17.614899999999999      4.266630000000000      7.515150000000000
O      -4.647330000000000      8.302400000000000     14.982400000000000
O       5.679290000000000     11.673299999999999     -2.324440000000000
O      11.224500000000001      1.105890000000000     15.038600000000001
O       3.900410000000000      5.701990000000000      4.694580000000000
O       7.063740000000000      7.492090000000000     18.065799999999999
O       8.234570000000000     12.269399999999999     -4.384450000000000
O      14.833600000000001      0.491598000000000      1.869670000000000
O      -5.723070000000000     11.307700000000001      1.727410000000000
O      -2.863760000000000      6.575490000000000      4.227810000000000
O     -13.941900000000000      4.910860000000000     15.192700000000000
O       9.183600000000000     17.828199999999999      9.699270000000000
O       6.807780000000000      8.292070000000001     14.373699999999999
O      19.967800000000000      6.675080000000000      7.271090000000000
O      11.180300000000001     18.747399999999999      5.116720000000000
O       7.272270000000000     10.884800000000000     15.707400000000000
O       5.800970000000000     14.358499999999999     10.423900000000000
O      -1.356880000000000      5.773780000000000      6.239380000000000
O       8.383540000000000      6.752350000000000     -4.143420000000000
O       5.610570000000000      1.408110000000000      8.267980000000000
O       6.566570000000000      8.246639999999999      6.548360000000000
O      11.630800000000001     -0.770979000000000     12.002700000000001
O       5.008650000000000      7.749620000000000      0.790233000000000
O      14.990900000000000      3.625030000000000     -1.883920000000000
O      14.565300000000001     -8.142189999999999     13.145899999999999
O       4.531490000000000     -3.336490000000000     10.452100000000000
O      11.043600000000000      7.166210000000000      7.019120000000000
O       4.447860000000000     10.860500000000000      3.028350000000000
O       9.989400000000000      6.515150000000000     19.717099999999999
O       2.145910000000000      7.840670000000000      7.361130000000000
O      17.098800000000001     15.290800000000001      6.512480000000000
O       2.310200000000000     28.464600000000001     -0.263223000000000
O       7.808060000000000      1.608570000000000     11.956099999999999
O       2.548650000000000      3.249780000000000      1.452360000000000
O       0.909359000000000      8.897840000000000      0.206772000000000
O      16.374400000000001     -5.803520000000000      5.721150000000000
O       9.961090000000000     11.835800000000001     -9.020949999999999
O      22.208600000000001     14.347000000000000     16.727499999999999
O      -3.222050000000000      6.695960000000000     13.299500000000000
O       8.263820000000001      5.445680000000000     -1.786690000000000
O      18.527300000000000     -2.583220000000000     21.716400000000000
O      12.221900000000000     19.545800000000000     -2.049570000000000
O       0.168102000000000      3.860810000000000     21.205100000000002
O      -0.041154500000000     13.310499999999999      9.296210000000000
O      -6.330500000000000      1.769700000000000      5.825090000000000
O       8.893739999999999     18.175400000000000     -1.378640000000000
O      14.364800000000001     19.929600000000001     11.138700000000000
O       7.340700000000000     17.433700000000002      0.724987000000000
O       7.384150000000000      9.799310000000000     25.453199999999999
O       4.330160000000000      2.915700000000000     -9.029610000000000
O      10.913600000000001      7.560100000000000     26.491099999999999
O       7.570870000000000     11.763700000000000      4.968900000000000
O       9.551940000000000     13.497100000000000      8.635400000000001
O       8.069390000000000      5.750380000000000      6.976370000000000
O     -12.316900000000000      5.792740000000000     13.500999999999999
O       0.187483000000000     12.459000000000000      2.389240000000000
O      10.547599999999999     -6.327860000000000      3.095420000000000
O      13.902699999999999      8.861549999999999      4.625640000000000
O       2.181390000000000      3.607160000000000     19.483400000000000
O       0.302565000000000      9.920439999999999     11.603999999999999
O      13.030600000000000     21.016400000000001     17.293600000000001
O      11.591300000000000     -2.794010000000000      0.127343000000000
O      21.017399999999999     18.400800000000000     11.150100000000000
O      11.853100000000000      1.752680000000000     10.785800000000000
O      17.826899999999998      5.125260000000000     -4.645620000000000
O       3.219180000000000      8.384410000000001      4.466910000000000
O      10.200699999999999      0.489367000000000      8.122529999999999
O       6.097460000000000      5.138230000000000      3.442250000000000
O      13.553200000000000      2.488190000000000      8.868710000000000
O       5.936390000000000      7.585870000000000     10.773199999999999
O      -4.169030000000000     16.345500000000001    -13.372800000000000
H       3.409770000000000     -5.354100000000000     14.334800000000000
H       2.839330000000000     -4.377670000000000     13.135300000000001
H      10.107699999999999      5.307920000000000     15.831000000000000
H      -4.317970000000000      4.302670000000000     15.307300000000000
H       8.457940000000001      7.209190000000000     15.207500000000000
H       8.419940000000000      7.000540000000000     16.947299999999998
H       6.536240000000000     -1.031320000000000      8.758920000000000
H       7.653400000000000     -1.480580000000000      8.033149999999999
H      14.634399999999999     16.606400000000001     20.155500000000000
H      13.754799999999999     17.774699999999999     19.460300000000000
H       3.230720000000000     -1.957190000000000      3.137360000000000
H       1.610470000000000     -2.640560000000000      2.999270000000000
H      14.788900000000000     -3.398770000000000     -0.896591000000000
H      15.994899999999999     -2.367650000000000     -0.632478000000000
H      -2.312490000000000     14.173299999999999     12.984400000000001
H      -1.026030000000000     13.929900000000000     14.025900000000000
H      -2.718970000000000     -5.792050000000000      8.460210000000000
H      -2.358130000000000     -5.607760000000000      7.085080000000000
H       4.376780000000000     14.516400000000001     -1.807180000000000
H       3.302950000000000     15.392899999999999     -2.734760000000000
H      14.526199999999999     -1.885190000000000      5.339170000000000
H      13.725899999999999     -3.183870000000000      5.190800000000000
H       1.742790000000000     16.822299999999998      9.220340000000000
H       1.967410000000000     15.693000000000000      8.367440000000000
H       9.705719999999999      3.752830000000000      2.009410000000000
H      10.151700000000000      3.838350000000000      3.619600000000000
H      14.940700000000000     -1.789050000000000      7.696410000000000
H      15.563000000000001     -1.006920000000000      6.465640000000000
H      15.189200000000000      2.563590000000000      9.283890000000000
H      16.086600000000001      3.468640000000000     10.038000000000000
H      11.706799999999999     -5.670580000000000     14.346800000000000
H      13.068000000000000     -5.227580000000000     13.574199999999999
H       5.663790000000000     19.280100000000001     13.048999999999999
H       6.561290000000000     20.412900000000000     13.740500000000001
H      12.270099999999999      2.226330000000000      2.533710000000000
H      13.044100000000000      3.536440000000000      2.254480000000000
H      12.919100000000000      5.030630000000000      7.126830000000000
H      12.839000000000000      3.587110000000000      7.697880000000000
H      18.202400000000001      8.675200000000000     -6.585910000000000
H      19.676700000000000      9.529280000000000     -6.228100000000000
H       5.899590000000000     19.119499999999999      5.976980000000000
H      -8.877170000000000     19.653800000000000      4.725070000000000
H      10.705100000000000    -10.958100000000000     10.092400000000000
H      11.905799999999999    -10.550800000000001      9.242440000000000
H      17.225999999999999     12.778600000000001     11.387600000000001
H      18.541300000000000     11.849500000000001     11.275900000000000
H       6.014020000000000     14.112399999999999     -0.264157000000000
H       5.764120000000000     13.017500000000000     -1.271080000000000
H       8.755670000000000      5.052030000000000      8.491420000000000
H       8.557020000000000      4.080300000000000      9.328930000000000
H      11.351900000000001      9.031739999999999     10.488400000000000
H      -3.694230000000000     10.735700000000000     10.327800000000000
H       6.070830000000000      9.269110000000000      4.980720000000000
H       5.718170000000000     10.108800000000000      4.033880000000000
H      -0.032852400000000      7.053400000000000      9.565930000000000
H       1.129680000000000      6.590890000000000     10.577999999999999
H      30.897600000000001     14.720200000000000     -3.704900000000000
H      31.993300000000001     15.116000000000000     -4.677820000000000
H      10.314200000000000     11.544600000000001     11.931699999999999
H      11.367100000000001     11.455900000000000     12.817299999999999
H       5.166740000000000     10.833600000000001      7.884320000000000
H       6.250490000000000     10.190700000000000      9.198670000000000
H     -10.419499999999999     21.003599999999999      8.694250000000000
H     -10.188800000000001     21.403199999999998     10.193800000000000
H       4.502120000000000      3.887300000000000      1.284390000000000
H       5.474690000000000      4.439840000000000      0.142663000000000
H       3.678060000000000      8.829810000000000     12.787500000000000
H       3.097560000000000      8.478859999999999     -4.340490000000000
H       4.200250000000000      0.125869000000000      2.892430000000000
H       5.031610000000000     -0.494144000000000      1.902330000000000
H       4.006140000000000     16.956099999999999      5.170790000000000
H       2.985650000000000     17.452600000000000      4.332300000000000
H       0.112831000000000     21.200900000000001      0.028643600000000
H      -0.958663000000000      6.525180000000000     -0.628981000000000
H       2.684380000000000     21.186299999999999     16.780500000000000
H       3.274220000000000      6.206380000000000     18.231100000000001
H       8.742839999999999     14.540100000000001     -2.431240000000000
H       6.975850000000000     14.290699999999999     -2.313450000000000
H      12.381600000000001      8.335850000000001     15.948300000000000
H      13.321600000000000      7.344050000000000     16.856999999999999
H      -0.850544000000000      6.882940000000000      7.277040000000000
H      -1.020760000000000      8.072350000000000      7.996670000000000
H      14.453099999999999      1.878580000000000     -1.481200000000000
H      13.730700000000001     15.870900000000001     13.940600000000000
H      11.579300000000000     11.368800000000000      5.766280000000000
H      -2.955360000000000     10.117599999999999      5.242280000000000
H      15.592700000000001      9.992369999999999     14.593299999999999
H      14.999499999999999     10.185100000000000     13.027799999999999
H      19.957699999999999     -3.123550000000000      6.554030000000000
H      21.326799999999999     -2.575910000000000      7.284490000000000
H      14.462199999999999     11.199999999999999     11.137700000000001
H      12.952999999999999     11.933900000000000     10.935100000000000
H       0.868597000000000     -3.468020000000000      8.722170000000000
H       2.000170000000000     -4.761650000000000      8.706070000000000
H       8.494740000000000     15.370400000000000      3.097880000000000
H       8.608459999999999     16.616199999999999      4.149110000000000
H       4.587890000000000      1.364780000000000     11.314600000000000
H       3.675350000000000      0.930471000000000     10.262900000000000
H       9.787160000000000      8.761740000000000      7.871960000000000
H      10.503800000000000      9.610340000000001      9.034689999999999
H      -1.896440000000000     14.629600000000000     17.313900000000000
H      -2.419080000000000     13.903900000000000     18.597100000000001
H      13.044499999999999      0.948625000000000      6.377000000000000
H      13.354600000000000     -0.107980000000000      7.148320000000000
H       8.692340000000000     -2.777320000000000      2.505620000000000
H       8.129040000000000     12.977700000000000      4.011080000000000
H       2.219460000000000      0.375223000000000     -0.276668000000000
H       2.825460000000000      0.112161000000000      1.249690000000000
H       3.913710000000000      9.252060000000000     16.293500000000002
H       2.350200000000000      9.466870000000000     16.264800000000001
H      15.138299999999999     10.897500000000001      2.386880000000000
H      13.991099999999999      9.675079999999999      2.045920000000000
H      -5.149840000000000     -0.106955000000000     14.539500000000000
H      -5.086140000000000     -1.727550000000000     14.637300000000000
H      17.549600000000002      3.799630000000000      8.395960000000001
H      17.411799999999999      5.265930000000000      7.415370000000000
H      -4.358990000000000      7.505800000000000     14.259300000000000
H      -5.119470000000000      7.926560000000000     15.686800000000000
H       5.783660000000000     11.838600000000000     -3.292220000000000
H       5.046310000000000     10.950400000000000     -2.139740000000000
H      11.227000000000000      1.079600000000000      0.495822000000000
H      12.149600000000000      1.331600000000000     14.774500000000000
H       4.716260000000000      5.648550000000000      4.063930000000000
H       3.405390000000000      6.465460000000000      4.459520000000000
H       6.218000000000000      7.632850000000000     17.503699999999998
H       6.688300000000000      8.441450000000000     18.721399999999999
H       8.715500000000000     12.642099999999999     -5.228890000000000
H       8.162630000000000     13.125000000000000     -3.798110000000000
H      15.940099999999999      0.289875000000000      1.644260000000000
H      -0.941077000000000      1.070240000000000      1.294980000000000
H      -5.494730000000000     10.394399999999999      2.065720000000000
H      -4.932950000000000     11.718000000000000      1.344750000000000
H      -2.765780000000000      6.012650000000000      3.419910000000000
H      -3.812040000000000      6.678620000000000      4.119500000000000
H     -13.467900000000000      4.166990000000000     15.682300000000000
H     -13.180800000000000     20.771999999999998     14.596800000000000
H       8.831450000000000     17.471699999999998     10.530500000000000
H       9.598879999999999     17.118700000000000      9.284599999999999
H       7.022640000000000      9.127810000000000     14.890300000000000
H       6.879300000000000      8.502920000000000     13.448200000000000
H       3.637330000000000      7.303360000000000      7.514790000000000
H       4.333430000000000      6.159870000000000      6.402310000000000
H      11.384399999999999     19.248100000000001      5.858730000000000
H      11.865399999999999     18.770399999999999      4.380980000000000
H       7.900590000000000     11.183100000000000     16.288300000000000
H       7.629580000000000     11.346200000000000     14.936600000000000
H       6.430700000000000     14.161700000000000     11.025800000000000
H       5.098110000000000     14.975099999999999     10.664300000000001
H      -1.997270000000000      6.208720000000000      5.484040000000000
H      -0.859505000000000      5.057170000000000      5.910550000000000
H       8.461150000000000      6.016750000000000     -4.733400000000000
H       7.668100000000000      7.273380000000000     -4.554910000000000
H       6.005560000000000      0.637822000000000      7.924930000000000
H       6.167770000000000      1.692310000000000      9.050420000000001
H       5.832430000000000      7.710590000000000      6.877150000000000
H       6.354170000000000      9.246610000000000      7.025010000000000
H      11.532500000000001     -1.644260000000000     11.611300000000000
H      10.994899999999999     -0.598115000000000     12.694500000000000
H       4.314080000000000      7.079940000000000      0.891633000000000
H       5.392260000000000      8.053670000000000     15.532299999999999
H      15.099399999999999      4.048750000000000     -2.724520000000000
H      15.591400000000000      4.021250000000000     -1.352930000000000
H      14.963200000000001     -7.921180000000000     12.287100000000001
H      13.539400000000001     -8.369130000000000     13.224900000000000
H       4.959580000000000     -3.884910000000000      9.724030000000001
H       4.941180000000000     -2.528560000000000     10.614300000000000
H      11.978899999999999     -7.905270000000000      6.822790000000000
H      10.935499999999999      6.156900000000000      7.367820000000000
H       3.869300000000000     11.530900000000001      3.573840000000000
H       3.863580000000000     10.752700000000001      2.133590000000000
H       9.572770000000000      5.627180000000000     19.295900000000000
H       9.859249999999999      6.506970000000000     20.635200000000001
H       1.358030000000000      7.452360000000000      7.801790000000000
H       2.004870000000000      8.448430000000000      6.678890000000000
H      17.427600000000002     16.106100000000001      5.881560000000000
H      17.769100000000002     -0.972627000000000      6.178430000000000
H       2.630920000000000     29.233599999999999     -0.796783000000000
H       2.860820000000000     27.946800000000000      0.191657000000000
H       7.572320000000000      0.695542000000000     12.179800000000000
H       8.388520000000000      2.007680000000000     12.694599999999999
H       2.429520000000000      3.392520000000000      2.482140000000000
H       2.596840000000000      2.267990000000000      1.285780000000000
H       0.803711000000000      7.992550000000000     -0.251631000000000
H       0.507727000000000      8.752670000000000      1.011940000000000
H      15.460300000000000     -6.205110000000000      5.630700000000000
H      16.242999999999999     -5.121810000000000      6.412350000000000
H       9.125959999999999     11.897700000000000     -9.703030000000000
H       9.823150000000000     10.906100000000000     -8.762779999999999
H      22.775900000000000     13.958000000000000     17.474799999999998
H      22.510000000000002     15.159700000000001     16.448399999999999
H      -2.932240000000000      5.714750000000000     13.338699999999999
H      -3.699130000000000      6.707270000000000     12.443099999999999
H       8.218930000000000      5.849570000000000     -2.733630000000000
H       8.661190000000000      4.459010000000000     -1.661780000000000
H      18.269800000000000     -2.610310000000000     20.765899999999998
H      17.873300000000000     -3.077670000000000     22.174499999999998
H      12.001600000000000     19.180399999999999     -2.941150000000000
H      13.244800000000000     19.274799999999999     -2.292540000000000
H       0.454124000000000      3.860610000000000     22.076699999999999
H      -0.204319000000000      3.092880000000000     20.979900000000001
H       0.358379000000000     13.959700000000000      9.949900000000000
H      -0.745007000000000     12.787400000000000      9.892770000000001
H      -6.897230000000000      2.520280000000000      6.075470000000000
H      -5.421970000000000      2.365860000000000      5.631340000000000
H       9.990750000000000     17.948200000000000     -1.162190000000000
H       8.476610000000001     17.528600000000001     -0.821131000000000
H      13.382700000000000     20.059799999999999     11.026400000000001
H      14.785600000000001     20.833100000000002     10.953600000000000
H       6.689370000000000     18.064800000000002      0.726338000000000
H       7.919200000000000     17.390899999999998      1.576970000000000
H       7.683760000000000     10.762400000000000     10.315000000000000
H       8.143240000000000      9.261500000000000     24.815100000000001
H       4.697770000000000      2.526330000000000     -8.217560000000001
H       3.847470000000000      3.617240000000000     -8.523330000000000
H       9.749660000000000      7.384820000000000     26.509899999999998
H      11.135500000000000      6.734430000000000     25.749400000000001
H       6.697930000000000     11.676000000000000      5.630060000000000
H       7.679410000000000     10.874400000000000      4.416790000000000
H       9.553450000000000     12.875000000000000      7.902300000000000
H       9.707039999999999     14.353700000000000      8.271509999999999
H       7.775760000000000      6.611030000000000      6.707860000000000
H       7.672800000000000      4.943300000000000      6.547840000000000
H     -12.422800000000001      6.550330000000000     12.876600000000000
H     -11.354900000000001      5.623330000000000     13.461600000000001
H      -0.583030000000000     12.474600000000001      2.998580000000000
H      -0.040572400000000     12.801500000000001      1.567210000000000
H       9.979310000000000     -7.058770000000000      3.233780000000000
H      11.447600000000000     -6.759790000000000      2.677240000000000
H      14.330700000000000      8.879339999999999      3.723390000000000
H      13.386300000000000      8.120550000000000      4.576180000000000
H       1.551300000000000      3.576050000000000     20.081800000000001
H       2.863780000000000      4.416820000000000     19.864000000000001
H       1.169440000000000     10.475700000000000     11.413500000000001
H       0.478104000000000      9.118800000000000     11.022900000000000
H      13.704700000000001     21.198799999999999     16.625599999999999
H      12.122600000000000     20.878399999999999     16.910100000000000
H      12.362900000000000     -2.374730000000000      0.603611000000000
H      12.014699999999999     -3.509180000000000     -0.549752000000000
H      21.846299999999999     18.031500000000001     11.247299999999999
H      20.939100000000000     19.235600000000002     10.704400000000000
H      11.830200000000000      0.692008000000000     11.034000000000001
H      10.974200000000000      1.993220000000000     10.811299999999999
H      18.500000000000000      5.085740000000000     -5.388830000000000
H      18.214900000000000      5.094930000000000     -3.798810000000000
H       3.840040000000000      9.150840000000001      4.150540000000000
H       2.300980000000000      8.992190000000001      4.299090000000000
H      11.207500000000000      0.388670000000000      7.899090000000000
H       9.596730000000001      1.081560000000000      7.383300000000000
H       5.681590000000000      4.602200000000000      2.623900000000000
H       6.470660000000000      6.026320000000000      3.106340000000000
H      13.462500000000000      1.702020000000000      8.337920000000000
H      13.103999999999999      2.393330000000000      9.765050000000000
H       5.054830000000000      8.086300000000000     11.253500000000001
H       6.387670000000000      8.309889999999999     10.324900000000000
H      -3.858350000000000     15.479200000000001    -13.195399999999999
H      -5.064240000000000     16.438800000000001    -13.188700000000001
