LAMMPS (2 Aug 2023)
Processor partition = 5
OMP_NUM_THREADS environment is not set. Defaulting to 1 thread. (src/comm.cpp:98)
  using 1 OpenMP thread(s) per MPI task
Loaded 1 plugins from /opt/deepmd-kit/lib/deepmd_lmp
clear
OMP_NUM_THREADS environment is not set. Defaulting to 1 thread. (src/comm.cpp:98)
  using 1 OpenMP thread(s) per MPI task
Loaded 1 plugins from /opt/deepmd-kit/lib/deepmd_lmp
# --------------------- VARIABLES-------------------------
variable        ibead           uloop 99 pad
variable        NSTEPS          equal 1000
variable        THERMO_FREQ     equal 1
#variable        DUMP_FREQ       equal 4000
#variable        NREPEAT         equal ${NSTEPS}/${DUMP_FREQ}
variable        TEMP            equal 300.000000
variable        TAU_T           equal 1.000000
# ---------------------- INITIALIZAITION ------------------
units           metal
boundary        p p p
atom_style      atomic
atom_modify     map yes
# --------------------- ATOM DEFINITION ------------------
read_data       /pscratch/sd/y/yifanl/Work/h2o/pimd/initial_config/conf01
Reading data file ...
  orthogonal box = (0 0 0) to (24.76926 24.76926 24.76926)
  1 by 1 by 1 MPI processor grid
  reading atoms ...
  1536 atoms
  read_data CPU = 0.003 seconds
mass            1 16.000000
mass            2 1.000000
replicate       2 2 2
Replication is creating a 2x2x2 = 8 times larger system...
  orthogonal box = (0 0 0) to (49.53852 49.53852 49.53852)
  1 by 1 by 1 MPI processor grid
  12288 atoms
  replicate CPU = 0.001 seconds
# --------------------- FORCE FIELDS ---------------------
pair_style      deepmd /pscratch/sd/y/yifanl/Work/h2o/pimd/benchmark/graph.pb
Summary of lammps deepmd module ...
  >>> Info of deepmd-kit:
  installed to:       /opt/deepmd-kit
  source:             
  source branch:      HEAD
  source commit:      5ec5eae
  source commit at:   2024-02-04 18:53:26 -0500
  support model ver.: 1.1 
  build variant:      cuda
  build with tf inc:  /opt/deepmd-kit/lib/python3.11/site-packages/tensorflow/include;/opt/deepmd-kit/include
  build with tf lib:  /opt/deepmd-kit/lib/python3.11/site-packages/tensorflow/libtensorflow_cc.so.2
  set tf intra_op_parallelism_threads: 0
  set tf inter_op_parallelism_threads: 0
  >>> Info of lammps module:
  use deepmd-kit at:  /opt/deepmd-kitpair_coeff * *
# --------------------- MD SETTINGS ----------------------
neighbor        2.0 bin
neigh_modify    every 10 delay 0 check no
timestep        0.000500
thermo          ${THERMO_FREQ}
thermo          1
thermo_style    custom step pe
#dump            1 all custom ${DUMP_FREQ} ${ibead}.xyz id type x y z
#dump_modify     1 sort id
fix 1 all pimd/langevin ensemble nvt integrator obabo temp ${TEMP} thermostat PILE_L 1234 tau ${TAU_T}
fix 1 all pimd/langevin ensemble nvt integrator obabo temp 300 thermostat PILE_L 1234 tau ${TAU_T}
fix 1 all pimd/langevin ensemble nvt integrator obabo temp 300 thermostat PILE_L 1234 tau 1
# --------------------- RUN ------------------------------
run             ${NSTEPS}
run             1000

CITE-CITE-CITE-CITE-CITE-CITE-CITE-CITE-CITE-CITE-CITE-CITE-CITE

Your simulation uses code contributions which should be cited:

- USER-DEEPMD package:

@article{Wang_ComputPhysCommun_2018_v228_p178,
  author = {Wang, Han and Zhang, Linfeng and Han, Jiequn and E, Weinan},
  doi = {10.1016/j.cpc.2018.03.016},
  url = {https://doi.org/10.1016/j.cpc.2018.03.016},
  year = 2018,
  month = {jul},
  publisher = {Elsevier {BV}},
  volume = 228,
  journal = {Comput. Phys. Commun.},
  title = {{DeePMD-kit: A deep learning package for many-body potential energy representation and molecular dynamics}},
  pages = {178--184}
}
@misc{Zeng_JChemPhys_2023_v159_p054801,
  title  = {{DeePMD-kit v2: A software package for deep potential models}},
  author =   {Jinzhe Zeng and Duo Zhang and Denghui Lu and Pinghui Mo and Zeyu Li
         and Yixiao Chen and Mari{\'a}n Rynik and Li'ang Huang and Ziyao Li and 
         Shaochen Shi and Yingze Wang and Haotian Ye and Ping Tuo and Jiabin
         Yang and Ye Ding and Yifan Li and Davide Tisi and Qiyu Zeng and Han 
         Bao and Yu Xia and Jiameng Huang and Koki Muraoka and Yibo Wang and 
         Junhan Chang and Fengbo Yuan and Sigbj{\o}rn L{\o}land Bore and Chun
         Cai and Yinnian Lin and Bo Wang and Jiayan Xu and Jia-Xin Zhu and 
         Chenxing Luo and Yuzhi Zhang and Rhys E A Goodall and Wenshuo Liang
         and Anurag Kumar Singh and Sikai Yao and Jingchao Zhang and Renata
         Wentzcovitch and Jiequn Han and Jie Liu and Weile Jia and Darrin M
         York and Weinan E and Roberto Car and Linfeng Zhang and Han Wang},
  journal =  {J. Chem. Phys.},
  volume =   159,
  issue =    5,  
  year =    2023,
  pages  =   054801,
  doi =      {10.1063/5.0155600},
}

CITE-CITE-CITE-CITE-CITE-CITE-CITE-CITE-CITE-CITE-CITE-CITE-CITE

Generated 0 of 1 mixed pair_coeff terms from geometric mixing rule

Initializing PI Langevin equation thermostat...
Bead ID    |    omega    |    tau    |    c1    |    c2
    0     0.00000000e+00 1.00000000e+00 9.99750031e-01 2.23578850e-02
    1     2.46383091e+02 2.02936004e-03 8.84094302e-01 4.67308533e-01
    2     4.90393378e+02 1.01958962e-03 7.82550604e-01 6.22586984e-01
    3     7.29680909e+02 6.85231028e-04 6.94307415e-01 7.19678548e-01
    4     9.61941214e+02 5.19782282e-04 6.18183088e-01 7.86034141e-01
    5     1.18493750e+03 4.21963184e-04 5.52960477e-01 8.33207484e-01
    6     1.39652219e+03 3.58032263e-04 4.97449570e-01 8.67492896e-01
    7     1.59465761e+03 3.13546932e-04 4.50530815e-01 8.92760878e-01
    8     1.77743560e+03 2.81304144e-04 4.11182633e-01 9.11552984e-01
    9     1.94309592e+03 2.57321317e-04 3.78496688e-01 9.25602646e-01
    10     2.09004316e+03 2.39229510e-04 3.51684231e-01 9.36118690e-01
    11     2.21686214e+03 2.25544021e-04 3.30076422e-01 9.43954213e-01
    12     2.32233153e+03 2.15300871e-04 3.13120943e-01 9.49713259e-01
    13     2.40543559e+03 2.07862560e-04 3.00376739e-01 9.53820641e-01
    14     2.46537400e+03 2.02808986e-04 2.91508242e-01 9.56568317e-01
    15     2.50156951e+03 1.99874518e-04 2.86280050e-01 9.58145987e-01
    16     2.51367353e+03 1.98912068e-04 2.84552711e-01 9.58660396e-01
    17     2.50156951e+03 1.99874518e-04 2.86280050e-01 9.58145987e-01
    18     2.46537400e+03 2.02808986e-04 2.91508242e-01 9.56568317e-01
    19     2.40543559e+03 2.07862560e-04 3.00376739e-01 9.53820641e-01
    20     2.32233153e+03 2.15300871e-04 3.13120943e-01 9.49713259e-01
    21     2.21686214e+03 2.25544021e-04 3.30076422e-01 9.43954213e-01
    22     2.09004316e+03 2.39229510e-04 3.51684231e-01 9.36118690e-01
    23     1.94309592e+03 2.57321317e-04 3.78496688e-01 9.25602646e-01
    24     1.77743560e+03 2.81304144e-04 4.11182633e-01 9.11552984e-01
    25     1.59465761e+03 3.13546932e-04 4.50530815e-01 8.92760878e-01
    26     1.39652219e+03 3.58032263e-04 4.97449570e-01 8.67492896e-01
    27     1.18493750e+03 4.21963184e-04 5.52960477e-01 8.33207484e-01
    28     9.61941214e+02 5.19782282e-04 6.18183088e-01 7.86034141e-01
    29     7.29680909e+02 6.85231028e-04 6.94307415e-01 7.19678548e-01
    30     4.90393378e+02 1.01958962e-03 7.82550604e-01 6.22586984e-01
    31     2.46383091e+02 2.02936004e-03 8.84094302e-01 4.67308533e-01
PILE_L thermostat successfully initialized!

Neighbor list info ...
  update: every = 10 steps, delay = 0 steps, check = no
  max neighbors/atom: 2000, page size: 100000
  master list distance cutoff = 8
  ghost atom cutoff = 8
  binsize = 4, bins = 13 13 13
  1 neighbor lists, perpetual/occasional/extra = 1 0 0
  (1) pair deepmd, perpetual
      attributes: full, newton on
      pair build: full/bin/atomonly
      stencil: full/bin/3d
      bin: standard
Per MPI rank memory allocation (min/avg/max) = 15.5 | 15.5 | 15.5 Mbytes
   Step         PotEng    
         0  -1914325.3    
         1  -1914110.3    
         2  -1913921      
         3  -1913813      
         4  -1913713.1    
         5  -1913651      
         6  -1913577.1    
         7  -1913540.8    
         8  -1913513.8    
         9  -1913487.9    
        10  -1913466.9    
        11  -1913458.5    
        12  -1913482.1    
        13  -1913498.5    
        14  -1913501.8    
        15  -1913500.7    
        16  -1913485.6    
        17  -1913481.6    
        18  -1913453.3    
        19  -1913457.5    
        20  -1913464.9    
        21  -1913472.8    
        22  -1913497.4    
        23  -1913519.3    
        24  -1913529.3    
        25  -1913539.5    
        26  -1913536.5    
        27  -1913508.9    
        28  -1913512.8    
        29  -1913499.9    
        30  -1913498.6    
        31  -1913514.2    
        32  -1913495.6    
        33  -1913493.1    
        34  -1913483.4    
        35  -1913472.9    
        36  -1913480.9    
        37  -1913468.5    
        38  -1913463.9    
        39  -1913454      
        40  -1913442.5    
        41  -1913447.9    
        42  -1913477.8    
        43  -1913490.7    
        44  -1913490.6    
        45  -1913485.1    
        46  -1913469.3    
        47  -1913474.6    
        48  -1913492.9    
        49  -1913505      
        50  -1913483.2    
        51  -1913482.6    
        52  -1913488.6    
        53  -1913493.2    
        54  -1913475.8    
        55  -1913491.6    
        56  -1913475.7    
        57  -1913474.4    
        58  -1913471.4    
        59  -1913463.9    
        60  -1913487.7    
        61  -1913480      
        62  -1913497.4    
        63  -1913482.9    
        64  -1913493.3    
        65  -1913511      
        66  -1913501.6    
        67  -1913506.8    
        68  -1913514.9    
        69  -1913534.1    
        70  -1913526.2    
        71  -1913510.2    
        72  -1913510.2    
        73  -1913489.3    
        74  -1913483      
        75  -1913492.7    
        76  -1913499.2    
        77  -1913489.9    
        78  -1913476.9    
        79  -1913475      
        80  -1913482.6    
        81  -1913475.3    
        82  -1913478.1    
        83  -1913475.5    
        84  -1913478.8    
        85  -1913488.5    
        86  -1913498.4    
        87  -1913513.8    
        88  -1913522.7    
        89  -1913527.7    
        90  -1913531.4    
        91  -1913524.8    
        92  -1913516.7    
        93  -1913511.7    
        94  -1913497.4    
        95  -1913477.7    
        96  -1913474.5    
        97  -1913466      
        98  -1913453.5    
        99  -1913456.4    
       100  -1913471.4    
       101  -1913467.5    
       102  -1913482.6    
       103  -1913468.6    
       104  -1913467.9    
       105  -1913477.7    
       106  -1913492.2    
       107  -1913502.5    
       108  -1913500.3    
       109  -1913493.1    
       110  -1913486.2    
       111  -1913490      
       112  -1913509.6    
       113  -1913519.1    
       114  -1913510.7    
       115  -1913517.6    
       116  -1913497.1    
       117  -1913461.5    
       118  -1913471.5    
       119  -1913472.9    
       120  -1913467.5    
       121  -1913478.5    
       122  -1913455.8    
       123  -1913458.3    
       124  -1913441.7    
       125  -1913450.9    
       126  -1913482.5    
       127  -1913493.9    
       128  -1913484.5    
       129  -1913488      
       130  -1913478      
       131  -1913474.8    
       132  -1913477.4    
       133  -1913481      
       134  -1913496.8    
       135  -1913498.1    
       136  -1913490.8    
       137  -1913464.6    
       138  -1913479.1    
       139  -1913469.1    
       140  -1913473.5    
       141  -1913477      
       142  -1913458.3    
       143  -1913466.4    
       144  -1913458.1    
       145  -1913465      
       146  -1913472.7    
       147  -1913473.3    
       148  -1913475.9    
       149  -1913490      
       150  -1913492.9    
       151  -1913507.3    
       152  -1913530.3    
       153  -1913521.7    
       154  -1913509.6    
       155  -1913486.2    
       156  -1913481.5    
       157  -1913455.6    
       158  -1913472      
       159  -1913489.5    
       160  -1913467.5    
       161  -1913470.8    
       162  -1913465.3    
       163  -1913469.5    
       164  -1913472.3    
       165  -1913484      
       166  -1913501.2    
       167  -1913502.3    
       168  -1913478.7    
       169  -1913487.4    
       170  -1913500.3    
       171  -1913461.9    
       172  -1913448.2    
       173  -1913460.1    
       174  -1913453.5    
       175  -1913460.7    
       176  -1913481.3    
       177  -1913495      
       178  -1913486.1    
       179  -1913502.2    
       180  -1913496.7    
       181  -1913494.4    
       182  -1913483.8    
       183  -1913487.4    
       184  -1913476      
       185  -1913481      
       186  -1913482.1    
       187  -1913455.8    
       188  -1913449.7    
       189  -1913464.1    
       190  -1913462.7    
       191  -1913472.7    
       192  -1913472.7    
       193  -1913470.8    
       194  -1913490.2    
       195  -1913489.6    
       196  -1913486.4    
       197  -1913502.6    
       198  -1913485.8    
       199  -1913475.2    
       200  -1913457.3    
       201  -1913451.5    
       202  -1913469.6    
       203  -1913468.7    
       204  -1913473.2    
       205  -1913473.4    
       206  -1913456      
       207  -1913440.2    
       208  -1913449.8    
       209  -1913436.4    
       210  -1913450.1    
       211  -1913476.1    
       212  -1913462.6    
       213  -1913481      
       214  -1913498.3    
       215  -1913469.1    
       216  -1913483.1    
       217  -1913486.9    
       218  -1913483.2    
       219  -1913471.5    
       220  -1913443.4    
       221  -1913436      
       222  -1913456.1    
       223  -1913457.3    
       224  -1913450.2    
       225  -1913446.9    
       226  -1913439.1    
       227  -1913467.1    
       228  -1913453.7    
       229  -1913456.5    
       230  -1913467.4    
       231  -1913455.7    
       232  -1913454.1    
       233  -1913473.4    
       234  -1913455.1    
       235  -1913465.6    
       236  -1913473.2    
       237  -1913472.4    
       238  -1913455.9    
       239  -1913456.1    
       240  -1913459.3    
       241  -1913463.4    
       242  -1913463.6    
       243  -1913466.9    
       244  -1913472.7    
       245  -1913474.6    
       246  -1913458.4    
       247  -1913452      
       248  -1913465.7    
       249  -1913481.3    
       250  -1913477.3    
       251  -1913489.7    
       252  -1913484.4    
       253  -1913467.1    
       254  -1913468.1    
       255  -1913481      
       256  -1913472.1    
       257  -1913477.5    
       258  -1913479.1    
       259  -1913482      
       260  -1913484.7    
       261  -1913491.5    
       262  -1913473.5    
       263  -1913471.5    
       264  -1913467.5    
       265  -1913465.2    
       266  -1913481.8    
       267  -1913465.7    
       268  -1913470.3    
       269  -1913473.7    
       270  -1913466.4    
       271  -1913449.2    
       272  -1913463.8    
       273  -1913468.6    
       274  -1913475      
       275  -1913484.3    
       276  -1913483.9    
       277  -1913489      
       278  -1913476.5    
       279  -1913470.3    
       280  -1913466.6    
       281  -1913440.5    
       282  -1913454.6    
       283  -1913465      
       284  -1913463.3    
       285  -1913467.9    
       286  -1913466      
       287  -1913465.9    
       288  -1913465.7    
       289  -1913472.1    
       290  -1913458.7    
       291  -1913442.2    
       292  -1913438.1    
       293  -1913441.6    
       294  -1913450.2    
       295  -1913454.6    
       296  -1913468.1    
       297  -1913457.6    
       298  -1913448.8    
       299  -1913438.5    
       300  -1913443.7    
       301  -1913451.5    
       302  -1913469.4    
       303  -1913452.9    
       304  -1913458.2    
       305  -1913462.6    
       306  -1913467.3    
       307  -1913467.6    
       308  -1913470.2    
       309  -1913485.6    
       310  -1913468.4    
       311  -1913452.5    
       312  -1913455.8    
       313  -1913455.7    
       314  -1913458.7    
       315  -1913479.3    
       316  -1913477.3    
       317  -1913456.8    
       318  -1913461.6    
       319  -1913470.7    
       320  -1913456.6    
       321  -1913451.1    
       322  -1913447.2    
       323  -1913441.9    
       324  -1913447.5    
       325  -1913450.6    
       326  -1913443.7    
       327  -1913432.1    
       328  -1913428.1    
       329  -1913434.5    
       330  -1913436.5    
       331  -1913440.9    
       332  -1913441.7    
       333  -1913439.1    
       334  -1913421.4    
       335  -1913437.7    
       336  -1913430.8    
       337  -1913433.4    
       338  -1913434      
       339  -1913422      
       340  -1913408.4    
       341  -1913420.3    
       342  -1913435.2    
       343  -1913445.9    
       344  -1913469.9    
       345  -1913460.4    
       346  -1913466.8    
       347  -1913471.5    
       348  -1913457.2    
       349  -1913444.7    
       350  -1913438.9    
       351  -1913447.6    
       352  -1913445.2    
       353  -1913447      
       354  -1913453.8    
       355  -1913444.2    
       356  -1913456.9    
       357  -1913444.4    
       358  -1913440.6    
       359  -1913456.3    
       360  -1913463      
       361  -1913455.1    
       362  -1913444      
       363  -1913441.1    
       364  -1913443.7    
       365  -1913462.1    
       366  -1913474.6    
       367  -1913470.8    
       368  -1913469.8    
       369  -1913449.3    
       370  -1913436.9    
       371  -1913427.1    
       372  -1913437.3    
       373  -1913454.4    
       374  -1913455.2    
       375  -1913441      
       376  -1913440.4    
       377  -1913439.5    
       378  -1913422.5    
       379  -1913432.3    
       380  -1913460.1    
       381  -1913463.3    
       382  -1913454.9    
       383  -1913450.2    
       384  -1913462.9    
       385  -1913470.3    
       386  -1913464.8    
       387  -1913446.3    
       388  -1913448      
       389  -1913460.2    
       390  -1913469.1    
       391  -1913478.6    
       392  -1913465.3    
       393  -1913454.9    
       394  -1913462.6    
       395  -1913463.1    
       396  -1913458.6    
       397  -1913434      
       398  -1913444.5    
       399  -1913452.6    
       400  -1913430.7    
       401  -1913437.6    
       402  -1913445.5    
       403  -1913457.2    
       404  -1913463.9    
       405  -1913450.2    
       406  -1913462.6    
       407  -1913448.5    
       408  -1913440      
       409  -1913442.4    
       410  -1913455.7    
       411  -1913454.6    
       412  -1913418.1    
       413  -1913442.8    
       414  -1913435      
       415  -1913435.3    
       416  -1913431.3    
       417  -1913448.4    
       418  -1913427.4    
       419  -1913434.6    
       420  -1913438.3    
       421  -1913448.4    
       422  -1913446.3    
       423  -1913435.8    
       424  -1913461.1    
       425  -1913468      
       426  -1913463.1    
       427  -1913471.2    
       428  -1913457.8    
       429  -1913447.5    
       430  -1913436.1    
       431  -1913443.5    
       432  -1913421      
       433  -1913435.2    
       434  -1913451.3    
       435  -1913448.1    
       436  -1913432.2    
       437  -1913430.3    
       438  -1913432.8    
       439  -1913442.1    
       440  -1913436.3    
       441  -1913449.6    
       442  -1913446.2    
       443  -1913435.4    
       444  -1913426.5    
       445  -1913441      
       446  -1913450.3    
       447  -1913444.9    
       448  -1913442.1    
       449  -1913424.1    
       450  -1913426.3    
       451  -1913427.6    
       452  -1913438.4    
       453  -1913448.2    
       454  -1913464.2    
       455  -1913463.8    
       456  -1913459      
       457  -1913442.4    
       458  -1913448.8    
       459  -1913441.8    
       460  -1913427.2    
       461  -1913432      
       462  -1913448.2    
       463  -1913441.1    
       464  -1913440.5    
       465  -1913425.8    
       466  -1913444.6    
       467  -1913454.3    
       468  -1913460.1    
       469  -1913473      
       470  -1913472.1    
       471  -1913481.6    
       472  -1913449.9    
       473  -1913445.8    
       474  -1913444.1    
       475  -1913438.1    
       476  -1913430.4    
       477  -1913430.6    
       478  -1913427.2    
       479  -1913434.1    
       480  -1913428.6    
       481  -1913414.6    
       482  -1913415.4    
       483  -1913438.8    
       484  -1913432.2    
       485  -1913442.3    
       486  -1913446.6    
       487  -1913442.5    
       488  -1913445.9    
       489  -1913440.6    
       490  -1913459.1    
       491  -1913453.4    
       492  -1913462.5    
       493  -1913440.1    
       494  -1913420.3    
       495  -1913442.2    
       496  -1913429.8    
       497  -1913442.1    
       498  -1913438.7    
       499  -1913440      
       500  -1913437.4    
       501  -1913430.7    
       502  -1913437.4    
       503  -1913436.5    
       504  -1913459.2    
       505  -1913459.6    
       506  -1913457.4    
       507  -1913449.3    
       508  -1913445      
       509  -1913449      
       510  -1913458.3    
       511  -1913451.5    
       512  -1913455.6    
       513  -1913454.9    
       514  -1913438.2    
       515  -1913417.5    
       516  -1913412.8    
       517  -1913421.7    
       518  -1913439.2    
       519  -1913430      
       520  -1913429.7    
       521  -1913442.6    
       522  -1913435.8    
       523  -1913436.9    
       524  -1913455.2    
       525  -1913453.4    
       526  -1913447.9    
       527  -1913450      
       528  -1913451.8    
       529  -1913456      
       530  -1913454.6    
       531  -1913453.1    
       532  -1913455      
       533  -1913442.2    
       534  -1913445.2    
       535  -1913446.6    
       536  -1913426.3    
       537  -1913426.3    
       538  -1913417.8    
       539  -1913424.7    
       540  -1913402.9    
       541  -1913412.3    
       542  -1913416.5    
       543  -1913445.7    
       544  -1913448.6    
       545  -1913464.4    
       546  -1913467.8    
       547  -1913448      
       548  -1913440.7    
       549  -1913433.3    
       550  -1913415.4    
       551  -1913432.2    
       552  -1913436.1    
       553  -1913430.6    
       554  -1913433.6    
       555  -1913431.4    
       556  -1913440.6    
       557  -1913448.7    
       558  -1913424      
       559  -1913443.3    
       560  -1913436.8    
       561  -1913415.9    
       562  -1913433.2    
       563  -1913445.5    
       564  -1913426.5    
       565  -1913430      
       566  -1913444      
       567  -1913469.2    
       568  -1913442.5    
       569  -1913423.1    
       570  -1913437.9    
       571  -1913419.7    
       572  -1913429.4    
       573  -1913444.2    
       574  -1913454.6    
       575  -1913452      
       576  -1913456.5    
       577  -1913456.5    
       578  -1913451.3    
       579  -1913449.2    
       580  -1913440.6    
       581  -1913448.9    
       582  -1913450      
       583  -1913444.4    
       584  -1913419.2    
       585  -1913434.9    
       586  -1913441.6    
       587  -1913418.7    
       588  -1913405.7    
       589  -1913435.7    
       590  -1913434.4    
       591  -1913431.1    
       592  -1913454.6    
       593  -1913459.3    
       594  -1913446.1    
       595  -1913426.6    
       596  -1913437.5    
       597  -1913422.8    
       598  -1913445.1    
       599  -1913439.7    
       600  -1913441.1    
       601  -1913434.5    
       602  -1913437.4    
       603  -1913431.9    
       604  -1913434.9    
       605  -1913416.1    
       606  -1913413.1    
       607  -1913419.9    
       608  -1913440.1    
       609  -1913441.6    
       610  -1913453.5    
       611  -1913470.1    
       612  -1913451.2    
       613  -1913448.2    
       614  -1913445.8    
       615  -1913451.1    
       616  -1913440.9    
       617  -1913433.8    
       618  -1913447.7    
       619  -1913457.5    
       620  -1913442.7    
       621  -1913434.4    
       622  -1913423.9    
       623  -1913425.3    
       624  -1913422.3    
       625  -1913418.4    
       626  -1913434      
       627  -1913443.6    
       628  -1913451.7    
       629  -1913445.5    
       630  -1913435.1    
       631  -1913436.9    
       632  -1913422.2    
       633  -1913407.6    
       634  -1913428.9    
       635  -1913423.1    
       636  -1913421      
       637  -1913417.3    
       638  -1913417      
       639  -1913411.4    
       640  -1913416.8    
       641  -1913429.1    
       642  -1913432.5    
       643  -1913413.1    
       644  -1913405.4    
       645  -1913416.5    
       646  -1913428.5    
       647  -1913438.6    
       648  -1913458      
       649  -1913457.5    
       650  -1913451.5    
       651  -1913437.9    
       652  -1913424.6    
       653  -1913419.6    
       654  -1913402.7    
       655  -1913406.6    
       656  -1913404.4    
       657  -1913397.1    
       658  -1913430      
       659  -1913442.3    
       660  -1913425.6    
       661  -1913420.2    
       662  -1913438.4    
       663  -1913445.7    
       664  -1913448.4    
       665  -1913425.8    
       666  -1913410.4    
       667  -1913434.2    
       668  -1913439.6    
       669  -1913450.5    
       670  -1913435.5    
       671  -1913422.7    
       672  -1913407.4    
       673  -1913410      
       674  -1913409      
       675  -1913425.4    
       676  -1913421.6    
       677  -1913413.9    
       678  -1913400.9    
       679  -1913410.8    
       680  -1913411.9    
       681  -1913425.4    
       682  -1913436.2    
       683  -1913429.5    
       684  -1913441.6    
       685  -1913444.9    
       686  -1913426.1    
       687  -1913439.1    
       688  -1913439.8    
       689  -1913448.7    
       690  -1913432.1    
       691  -1913432.7    
       692  -1913423.7    
       693  -1913440.5    
       694  -1913438.6    
       695  -1913433.1    
       696  -1913444.9    
       697  -1913437.5    
       698  -1913413.5    
       699  -1913411.4    
       700  -1913414.5    
       701  -1913408.7    
       702  -1913417.1    
       703  -1913417.8    
       704  -1913407.1    
       705  -1913405.7    
       706  -1913418.3    
       707  -1913423.4    
       708  -1913418.2    
       709  -1913412.9    
       710  -1913406.9    
       711  -1913411.9    
       712  -1913422.6    
       713  -1913428.2    
       714  -1913426.8    
       715  -1913424.3    
       716  -1913436.4    
       717  -1913425.7    
       718  -1913408.6    
       719  -1913415.4    
       720  -1913409.5    
       721  -1913411.7    
       722  -1913417      
       723  -1913409.1    
       724  -1913422.1    
       725  -1913404      
       726  -1913417.6    
       727  -1913421.2    
       728  -1913426.8    
       729  -1913427.4    
       730  -1913411.5    
       731  -1913422.9    
       732  -1913420.8    
       733  -1913431.8    
       734  -1913413.9    
       735  -1913424.6    
       736  -1913427      
       737  -1913435.5    
       738  -1913440.9    
       739  -1913440.3    
       740  -1913427.5    
       741  -1913408.9    
       742  -1913414.5    
       743  -1913432.9    
       744  -1913457.8    
       745  -1913448      
       746  -1913441.9    
       747  -1913446.3    
       748  -1913435      
       749  -1913424.2    
       750  -1913428.5    
       751  -1913445.6    
       752  -1913444.5    
       753  -1913440.6    
       754  -1913434.7    
       755  -1913441.1    
       756  -1913445.8    
       757  -1913415.1    
       758  -1913422      
       759  -1913413.7    
       760  -1913401.9    
       761  -1913420.4    
       762  -1913426.4    
       763  -1913416.7    
       764  -1913392.6    
       765  -1913418.8    
       766  -1913412.5    
       767  -1913419.5    
       768  -1913419.2    
       769  -1913428.8    
       770  -1913441.1    
       771  -1913403.6    
       772  -1913419.1    
       773  -1913425.5    
       774  -1913432.1    
       775  -1913429.4    
       776  -1913424.9    
       777  -1913419.8    
       778  -1913423      
       779  -1913413.9    
       780  -1913435.4    
       781  -1913425.6    
       782  -1913431.4    
       783  -1913423.2    
       784  -1913416.9    
       785  -1913412      
       786  -1913419      
       787  -1913404      
       788  -1913422.4    
       789  -1913427.8    
       790  -1913422.9    
       791  -1913439.9    
       792  -1913434.1    
       793  -1913438.7    
       794  -1913442.5    
       795  -1913424.1    
       796  -1913413.8    
       797  -1913440.8    
       798  -1913435.7    
       799  -1913430.7    
       800  -1913430.4    
       801  -1913418.2    
       802  -1913421.7    
       803  -1913422.3    
       804  -1913412.8    
       805  -1913422.4    
       806  -1913424.2    
       807  -1913405.8    
       808  -1913410.2    
       809  -1913430.6    
       810  -1913407.8    
       811  -1913430.4    
       812  -1913460.8    
       813  -1913446.4    
       814  -1913428.5    
       815  -1913423.9    
       816  -1913428.1    
       817  -1913408      
       818  -1913396.8    
       819  -1913391.3    
       820  -1913385.2    
       821  -1913415.5    
       822  -1913419.4    
       823  -1913400.5    
       824  -1913408.2    
       825  -1913415.2    
       826  -1913406      
       827  -1913406.4    
       828  -1913409.5    
       829  -1913412.1    
       830  -1913424      
       831  -1913421.4    
       832  -1913423      
       833  -1913426.2    
       834  -1913420.2    
       835  -1913420.6    
       836  -1913400.4    
       837  -1913431.4    
       838  -1913425.9    
       839  -1913434.6    
       840  -1913402.4    
       841  -1913416.6    
       842  -1913431.3    
       843  -1913428.2    
       844  -1913428.3    
       845  -1913427.5    
       846  -1913421.7    
       847  -1913414.2    
       848  -1913427.5    
       849  -1913420      
       850  -1913411.7    
       851  -1913398.7    
       852  -1913413.3    
       853  -1913446.1    
       854  -1913451.3    
       855  -1913455.2    
       856  -1913442.5    
       857  -1913417.9    
       858  -1913425.1    
       859  -1913418.1    
       860  -1913423.1    
       861  -1913434.2    
       862  -1913448.6    
       863  -1913444.8    
       864  -1913443      
       865  -1913444.6    
       866  -1913430.5    
       867  -1913415.8    
       868  -1913425.2    
       869  -1913413.3    
       870  -1913427.8    
       871  -1913432.7    
       872  -1913408.9    
       873  -1913403.2    
       874  -1913405.8    
       875  -1913409.1    
       876  -1913435.3    
       877  -1913433.7    
       878  -1913413.7    
       879  -1913421.7    
       880  -1913418.7    
       881  -1913413.2    
       882  -1913423.2    
       883  -1913445.3    
       884  -1913441.5    
       885  -1913449.2    
       886  -1913442.1    
       887  -1913418.2    
       888  -1913432.2    
       889  -1913448      
       890  -1913444.1    
       891  -1913460.3    
       892  -1913456      
       893  -1913421.9    
       894  -1913431.4    
       895  -1913423.4    
       896  -1913425.4    
       897  -1913427.3    
       898  -1913429.3    
       899  -1913418.8    
       900  -1913422.5    
       901  -1913433.8    
       902  -1913429.9    
       903  -1913402.1    
       904  -1913372.7    
       905  -1913407.4    
       906  -1913400.9    
       907  -1913416.2    
       908  -1913419.1    
       909  -1913410.8    
       910  -1913426.1    
       911  -1913414      
       912  -1913422.3    
       913  -1913437.1    
       914  -1913446.9    
       915  -1913434.2    
       916  -1913432.3    
       917  -1913418.8    
       918  -1913422.9    
       919  -1913421.7    
       920  -1913414.8    
       921  -1913407.3    
       922  -1913427.1    
       923  -1913434.1    
       924  -1913434.5    
       925  -1913411      
       926  -1913417.3    
       927  -1913420.3    
       928  -1913409.4    
       929  -1913405.2    
       930  -1913427.6    
       931  -1913431.5    
       932  -1913426.6    
       933  -1913419.5    
       934  -1913453.8    
       935  -1913444.4    
       936  -1913425.2    
       937  -1913427.9    
       938  -1913418.8    
       939  -1913421.8    
       940  -1913411.2    
       941  -1913433.9    
       942  -1913425.2    
       943  -1913425.3    
       944  -1913430.5    
       945  -1913437      
       946  -1913441.6    
       947  -1913430      
       948  -1913436.3    
       949  -1913432.5    
       950  -1913419.8    
       951  -1913412.6    
       952  -1913422.2    
       953  -1913431.5    
       954  -1913450.1    
       955  -1913442.3    
       956  -1913409.1    
       957  -1913400.8    
       958  -1913405.7    
       959  -1913400.7    
       960  -1913408.9    
       961  -1913407      
       962  -1913418.5    
       963  -1913408.1    
       964  -1913411.9    
       965  -1913418.7    
       966  -1913430.1    
       967  -1913430.7    
       968  -1913423      
       969  -1913412.2    
       970  -1913427.8    
       971  -1913445.3    
       972  -1913430.6    
       973  -1913417.4    
       974  -1913422.8    
       975  -1913418.9    
       976  -1913420.1    
       977  -1913436.6    
       978  -1913439      
       979  -1913439.3    
       980  -1913445.7    
       981  -1913425.1    
       982  -1913426.9    
       983  -1913418      
       984  -1913395.9    
       985  -1913403.9    
       986  -1913403.3    
       987  -1913409.8    
       988  -1913407.8    
       989  -1913394.9    
       990  -1913395      
       991  -1913403.8    
       992  -1913398.6    
       993  -1913417.4    
       994  -1913424      
       995  -1913439.9    
       996  -1913442.5    
       997  -1913435.6    
       998  -1913441.7    
       999  -1913445.9    
      1000  -1913433.2    
Loop time of 187.491 on 1 procs for 1000 steps with 12288 atoms

Performance: 0.230 ns/day, 104.161 hours/ns, 5.334 timesteps/s, 65.539 katom-step/s
80.5% CPU use with 1 MPI tasks x 1 OpenMP threads

MPI task timing breakdown:
Section |  min time  |  avg time  |  max time  |%varavg| %total
---------------------------------------------------------------
Pair    | 16.054     | 16.054     | 16.054     |   0.0 |  8.56
Neigh   | 5.6933     | 5.6933     | 5.6933     |   0.0 |  3.04
Comm    | 0.089485   | 0.089485   | 0.089485   |   0.0 |  0.05
Output  | 0.014184   | 0.014184   | 0.014184   |   0.0 |  0.01
Modify  | 165.62     | 165.62     | 165.62     |   0.0 | 88.33
Other   |            | 0.02428    |            |       |  0.01

Nlocal:          12288 ave       12288 max       12288 min
Histogram: 1 0 0 0 0 0 0 0 0 0
Nghost:          15862 ave       15862 max       15862 min
Histogram: 1 0 0 0 0 0 0 0 0 0
Neighs:              0 ave           0 max           0 min
Histogram: 1 0 0 0 0 0 0 0 0 0
FullNghs:  2.65524e+06 ave 2.65524e+06 max 2.65524e+06 min
Histogram: 1 0 0 0 0 0 0 0 0 0

Total # of neighbors = 2655242
Ave neighs/atom = 216.08415
Neighbor list builds = 100
Dangerous builds not checked
write_data      final.${ibead}
write_data      final.06
System init for write_data ...
Generated 0 of 1 mixed pair_coeff terms from geometric mixing rule

Initializing PI Langevin equation thermostat...
Bead ID    |    omega    |    tau    |    c1    |    c2
    0     0.00000000e+00 1.00000000e+00 9.99750031e-01 2.23578850e-02
    1     2.46383091e+02 2.02936004e-03 8.84094302e-01 4.67308533e-01
    2     4.90393378e+02 1.01958962e-03 7.82550604e-01 6.22586984e-01
    3     7.29680909e+02 6.85231028e-04 6.94307415e-01 7.19678548e-01
    4     9.61941214e+02 5.19782282e-04 6.18183088e-01 7.86034141e-01
    5     1.18493750e+03 4.21963184e-04 5.52960477e-01 8.33207484e-01
    6     1.39652219e+03 3.58032263e-04 4.97449570e-01 8.67492896e-01
    7     1.59465761e+03 3.13546932e-04 4.50530815e-01 8.92760878e-01
    8     1.77743560e+03 2.81304144e-04 4.11182633e-01 9.11552984e-01
    9     1.94309592e+03 2.57321317e-04 3.78496688e-01 9.25602646e-01
    10     2.09004316e+03 2.39229510e-04 3.51684231e-01 9.36118690e-01
    11     2.21686214e+03 2.25544021e-04 3.30076422e-01 9.43954213e-01
    12     2.32233153e+03 2.15300871e-04 3.13120943e-01 9.49713259e-01
    13     2.40543559e+03 2.07862560e-04 3.00376739e-01 9.53820641e-01
    14     2.46537400e+03 2.02808986e-04 2.91508242e-01 9.56568317e-01
    15     2.50156951e+03 1.99874518e-04 2.86280050e-01 9.58145987e-01
    16     2.51367353e+03 1.98912068e-04 2.84552711e-01 9.58660396e-01
    17     2.50156951e+03 1.99874518e-04 2.86280050e-01 9.58145987e-01
    18     2.46537400e+03 2.02808986e-04 2.91508242e-01 9.56568317e-01
    19     2.40543559e+03 2.07862560e-04 3.00376739e-01 9.53820641e-01
    20     2.32233153e+03 2.15300871e-04 3.13120943e-01 9.49713259e-01
    21     2.21686214e+03 2.25544021e-04 3.30076422e-01 9.43954213e-01
    22     2.09004316e+03 2.39229510e-04 3.51684231e-01 9.36118690e-01
    23     1.94309592e+03 2.57321317e-04 3.78496688e-01 9.25602646e-01
    24     1.77743560e+03 2.81304144e-04 4.11182633e-01 9.11552984e-01
    25     1.59465761e+03 3.13546932e-04 4.50530815e-01 8.92760878e-01
    26     1.39652219e+03 3.58032263e-04 4.97449570e-01 8.67492896e-01
    27     1.18493750e+03 4.21963184e-04 5.52960477e-01 8.33207484e-01
    28     9.61941214e+02 5.19782282e-04 6.18183088e-01 7.86034141e-01
    29     7.29680909e+02 6.85231028e-04 6.94307415e-01 7.19678548e-01
    30     4.90393378e+02 1.01958962e-03 7.82550604e-01 6.22586984e-01
    31     2.46383091e+02 2.02936004e-03 8.84094302e-01 4.67308533e-01
PILE_L thermostat successfully initialized!

Total wall time: 0:03:31
