LAMMPS (10 Dec 2025 - Development - patch_24Dec2020-21955-gcf116c2130-modified)
Processor partition = 7
OMP_NUM_THREADS environment is not set. Defaulting to 1 thread.
  using 1 OpenMP thread(s) per MPI task
Loaded 1 plugins from /global/homes/y/yifanl/.conda/envs/dp-pimd-devel/lib/deepmd_lmp
Loaded 1 plugins from /global/homes/y/yifanl/.conda/envs/dp-pimd-devel/lib/deepmd_lmp
clear
OMP_NUM_THREADS environment is not set. Defaulting to 1 thread.
  using 1 OpenMP thread(s) per MPI task
Restoring plugin: deepmd pair style v3.1.1-24-gc346332d by Han Wang
Restoring plugin: deepspin pair style v3.1.1-24-gc346332d by Duo Zhang
Restoring plugin: compute deeptensor/atom v3.1.1-24-gc346332d by Han Wang
Restoring plugin: fix dplr v3.1.1-24-gc346332d by Han Wang
Restoring plugin: kspace pppm/dplr v3.1.1-24-gc346332d by Han Wang
Loaded 1 plugins from /global/homes/y/yifanl/.conda/envs/dp-pimd-devel/lib/deepmd_lmp
Loaded 1 plugins from /global/homes/y/yifanl/.conda/envs/dp-pimd-devel/lib/deepmd_lmp
# --------------------- VARIABLES-------------------------
variable        ibead           uloop 99 pad
variable        NSTEPS          equal 100
variable        THERMO_FREQ     equal 1
#variable        DUMP_FREQ       equal 4000
#variable        NREPEAT         equal ${NSTEPS}/${DUMP_FREQ}
variable        TEMP            equal 300.000000
variable        TAU_T           equal 1.000000
# ---------------------- INITIALIZAITION ------------------
units           metal
boundary        p p p
atom_style      atomic
atom_modify     map yes
# --------------------- ATOM DEFINITION ------------------
read_data       /pscratch/sd/y/yifanl/Work/h2o/pimd/initial_config/conf01
Reading data file ...
  orthogonal box = (0 0 0) to (24.76926 24.76926 24.76926)
  2 by 2 by 2 MPI processor grid
  reading atoms ...
  1536 atoms
  read_data CPU = 0.014 seconds
mass            1 16.000000
mass            2 1.000000
replicate       7 7 7
Replication is creating a 7x7x7 = 343 times larger system...
  orthogonal box = (0 0 0) to (173.38482 173.38482 173.38482)
  2 by 2 by 2 MPI processor grid
  526848 atoms
  replicate CPU = 0.021 seconds
# --------------------- FORCE FIELDS ---------------------
pair_style      deepmd /pscratch/sd/y/yifanl/Work/h2o/pimd/benchmark/graph.pb
Summary of lammps deepmd module ...
  >>> Info of deepmd-kit:
  installed to:       /global/homes/y/yifanl/.conda/envs/dp-pimd-devel
  source:             v3.1.1-24-gc346332d
  source branch:      devel
  source commit:      c346332d
  source commit at:   2025-11-14 11:37:53 +0000
  support model ver.: 1.1 
  build variant:      cuda
  build with tf inc:  /global/homes/y/yifanl/.conda/envs/dp-pimd-devel/lib/python3.12/site-packages/tensorflow/include;/global/homes/y/yifanl/.conda/envs/dp-pimd-devel/include
  build with tf lib:  /global/homes/y/yifanl/.conda/envs/dp-pimd-devel/lib/python3.12/site-packages/tensorflow/libtensorflow_cc.so.2
  set tf intra_op_parallelism_threads: 0
  set tf inter_op_parallelism_threads: 0
  >>> Info of lammps module:
  use deepmd-kit at:  /global/homes/y/yifanl/.conda/envs/dp-pimd-devel
  source:             v3.1.1-24-gc346332d
  source branch:      devel
  source commit:      c346332d
  source commit at:   2025-11-14 11:37:53 +0000
  build with inc:     
  build with lib:     /global/homes/y/yifanl/.conda/envs/dp-pimd-devel/lib/python3.12/site-packages/tensorflow
pair_coeff * *
# --------------------- MD SETTINGS ----------------------
neighbor        2.0 bin
neigh_modify    every 10 delay 0 check no
timestep        0.000500
#dump            1 all custom ${DUMP_FREQ} ${ibead}.xyz id type x y z
#dump_modify     1 sort id
fix 1 all pimd/langevin ensemble nvt integrator obabo temp ${TEMP} thermostat PILE_L 1234 tau ${TAU_T}
fix 1 all pimd/langevin ensemble nvt integrator obabo temp 300 thermostat PILE_L 1234 tau ${TAU_T}
fix 1 all pimd/langevin ensemble nvt integrator obabo temp 300 thermostat PILE_L 1234 tau 1
thermo_style    custom step pe f_1[11]
thermo          ${THERMO_FREQ}
thermo          1
# --------------------- RUN ------------------------------
run             ${NSTEPS}
run             100

CITE-CITE-CITE-CITE-CITE-CITE-CITE-CITE-CITE-CITE-CITE-CITE-CITE

Your simulation uses code contributions which should be cited:

- USER-DEEPMD package:

@article{Wang_ComputPhysCommun_2018_v228_p178,
  author = {Wang, Han and Zhang, Linfeng and Han, Jiequn and E, Weinan},
  doi = {10.1016/j.cpc.2018.03.016},
  url = {https://doi.org/10.1016/j.cpc.2018.03.016},
  year = 2018,
  month = {jul},
  publisher = {Elsevier {BV}},
  volume = 228,
  journal = {Comput. Phys. Commun.},
  title = {{DeePMD-kit: A deep learning package for many-body potential energy representation and molecular dynamics}},
  pages = {178--184}
}
@article{Zeng_JChemPhys_2023_v159_p054801,
  title  = {{DeePMD-kit v2: A software package for deep potential models}},
  author =   {Jinzhe Zeng and Duo Zhang and Denghui Lu and Pinghui Mo and Zeyu Li
         and Yixiao Chen and Mari{\'a}n Rynik and Li'ang Huang and Ziyao Li and 
         Shaochen Shi and Yingze Wang and Haotian Ye and Ping Tuo and Jiabin
         Yang and Ye Ding and Yifan Li and Davide Tisi and Qiyu Zeng and Han 
         Bao and Yu Xia and Jiameng Huang and Koki Muraoka and Yibo Wang and 
         Junhan Chang and Fengbo Yuan and Sigbj{\o}rn L{\o}land Bore and Chun
         Cai and Yinnian Lin and Bo Wang and Jiayan Xu and Jia-Xin Zhu and 
         Chenxing Luo and Yuzhi Zhang and Rhys E A Goodall and Wenshuo Liang
         and Anurag Kumar Singh and Sikai Yao and Jingchao Zhang and Renata
         Wentzcovitch and Jiequn Han and Jie Liu and Weile Jia and Darrin M
         York and Weinan E and Roberto Car and Linfeng Zhang and Han Wang},
  journal =  {J. Chem. Phys.},
  volume =   159,
  issue =    5,  
  year =    2023,
  pages  =   054801,
  doi =      {10.1063/5.0155600},
}
@Article{Zeng_JChemTheoryComput_2025_v21_p4375,
  author =   {Jinzhe Zeng and Duo Zhang and Anyang Peng and Xiangyu Zhang and Sensen
             He and Yan Wang and Xinzijian Liu and Hangrui Bi and Yifan Li and Chun
             Cai and Chengqian Zhang and Yiming Du and Jia-Xin Zhu and Pinghui Mo
             and Zhengtao Huang and Qiyu Zeng and Shaochen Shi and Xuejian Qin and
             Zhaoxi Yu and Chenxing Luo and Ye Ding and Yun-Pei Liu and Ruosong Shi
             and Zhenyu Wang and Sigbj{\o}rn L{\o}land Bore and Junhan Chang and
             Zhe Deng and Zhaohan Ding and Siyuan Han and Wanrun Jiang and Guolin
             Ke and Zhaoqing Liu and Denghui Lu and Koki Muraoka and Hananeh Oliaei
             and Anurag Kumar Singh and Haohui Que and Weihong Xu and Zhangmancang
             Xu and Yong-Bin Zhuang and Jiayu Dai and Timothy J. Giese and Weile
             Jia and Ben Xu and Darrin M. York and Linfeng Zhang and Han Wang},
    title =    {{DeePMD-kit v3: A Multiple-Backend Framework for Machine Learning
             Potentials}},
  journal =  {J. Chem. Theory Comput.},
  year =     2025,
  volume =   21,
  number =   9,
  pages =    {4375--4385},
  doi =      {10.1021/acs.jctc.5c00340},
}

CITE-CITE-CITE-CITE-CITE-CITE-CITE-CITE-CITE-CITE-CITE-CITE-CITE

Generated 0 of 1 mixed pair_coeff terms from geometric mixing rule
Neighbor list info ...
  update: every = 10 steps, delay = 0 steps, check = no
  max neighbors/atom: 2000, page size: 100000
  master list distance cutoff = 8
  ghost atom cutoff = 8
  binsize = 4, bins = 44 44 44
  1 neighbor lists, perpetual/occasional/extra = 1 0 0
  (1) pair deepmd, perpetual
      attributes: full, newton on
      pair build: full/bin/atomonly
      stencil: full/bin/3d
      bin: standard
Per MPI rank memory allocation (min/avg/max) = 73.81 | 73.81 | 73.81 Mbytes
   Step         PotEng        f_1[11]    
         0  -82076698       0            
         1  -82067514       0            
         2  -82060143       0            
         3  -82054958       0            
         4  -82051063       0            
         5  -82047957       0            
         6  -82045377       0            
         7  -82043146       0            
         8  -82041296       0            
         9  -82040230       0            
        10  -82039952       542          
        11  -82040401       542          
        12  -82041029       542          
        13  -82041524       542          
        14  -82041715       542          
        15  -82041461       542          
        16  -82040838       542          
        17  -82039937       542          
        18  -82039119       542          
        19  -82038851       542          
        20  -82039335       519          
        21  -82040309       519          
        22  -82041579       519          
        23  -82042673       519          
        24  -82043394       519          
        25  -82043431       519          
        26  -82043230       519          
        27  -82042867       519          
        28  -82042443       519          
        29  -82042287       519          
        30  -82042147       567          
        31  -82042357       567          
        32  -82042355       567          
        33  -82042224       567          
        34  -82041839       567          
        35  -82041198       567          
        36  -82040574       567          
        37  -82039707       567          
        38  -82039167       567          
        39  -82038952       567          
        40  -82039106       662          
        41  -82039401       662          
        42  -82039860       662          
        43  -82040274       662          
        44  -82040573       662          
        45  -82040715       662          
        46  -82040622       662          
        47  -82040541       662          
        48  -82040770       662          
        49  -82040888       662          
        50  -82041064       874          
        51  -82041084       874          
        52  -82041177       874          
        53  -82041035       874          
        54  -82040752       874          
        55  -82040528       874          
        56  -82040211       874          
        57  -82040107       874          
        58  -82039958       874          
        59  -82039969       874          
        60  -82040128       775          
        61  -82040193       775          
        62  -82040574       775          
        63  -82040691       775          
        64  -82040821       775          
        65  -82041056       775          
        66  -82041200       775          
        67  -82041499       775          
        68  -82041758       775          
        69  -82041986       775          
        70  -82042032       725          
        71  -82042050       725          
        72  -82041946       725          
        73  -82041769       725          
        74  -82041483       725          
        75  -82041142       725          
        76  -82040897       725          
        77  -82040682       725          
        78  -82040541       725          
        79  -82040462       725          
        80  -82040208       626          
        81  -82040064       626          
        82  -82040068       626          
        83  -82040121       626          
        84  -82040425       626          
        85  -82040621       626          
        86  -82040813       626          
        87  -82040979       626          
        88  -82041142       626          
        89  -82041214       626          
        90  -82041369       724          
        91  -82041325       724          
        92  -82041188       724          
        93  -82041261       724          
        94  -82041050       724          
        95  -82040885       724          
        96  -82040646       724          
        97  -82040555       724          
        98  -82040363       724          
        99  -82040303       724          
       100  -82040021       784          
Loop time of 87.2407 on 8 procs for 100 steps with 526848 atoms

Performance: 0.050 ns/day, 484.671 hours/ns, 1.146 timesteps/s, 603.902 katom-step/s
69.2% CPU use with 8 MPI tasks x 1 OpenMP threads

MPI task timing breakdown:
Section |  min time  |  avg time  |  max time  |%varavg| %total
---------------------------------------------------------------
Pair    | 8.0139     | 8.0468     | 8.093      |   1.0 |  9.22
Neigh   | 6.4279     | 6.4611     | 6.4818     |   0.7 |  7.41
Comm    | 0.68935    | 1.056      | 1.2514     |  16.0 |  1.21
Output  | 0.0094375  | 0.012      | 0.015478   |   2.3 |  0.01
Modify  | 71.426     | 71.637     | 71.963     |   1.8 | 82.11
Other   |            | 0.02783    |            |       |  0.03

Nlocal:          65856 ave       65875 max       65826 min
Histogram: 1 0 0 0 1 3 0 1 0 2
Nghost:        42637.6 ave       42659 max       42603 min
Histogram: 1 0 0 2 0 1 0 1 0 3
Neighs:              0 ave           0 max           0 min
Histogram: 8 0 0 0 0 0 0 0 0 0
FullNghs:  1.42256e+07 ave 1.42298e+07 max 1.42181e+07 min
Histogram: 1 0 0 0 1 1 2 0 1 2

Total # of neighbors = 1.1380489e+08
Ave neighs/atom = 216.01086
Neighbor list builds = 10
Dangerous builds not checked
write_data      final.${ibead}
write_data      final.08
System init for write_data ...
Generated 0 of 1 mixed pair_coeff terms from geometric mixing rule
Total wall time: 0:01:54
