LAMMPS (2 Aug 2023)
Processor partition = 1
OMP_NUM_THREADS environment is not set. Defaulting to 1 thread. (src/comm.cpp:98)
  using 1 OpenMP thread(s) per MPI task
Loaded 1 plugins from /opt/deepmd-kit/lib/deepmd_lmp
clear
OMP_NUM_THREADS environment is not set. Defaulting to 1 thread. (src/comm.cpp:98)
  using 1 OpenMP thread(s) per MPI task
Loaded 1 plugins from /opt/deepmd-kit/lib/deepmd_lmp
# --------------------- VARIABLES-------------------------
variable        ibead           uloop 99 pad
variable        NSTEPS          equal 1000
variable        THERMO_FREQ     equal 1
#variable        DUMP_FREQ       equal 4000
#variable        NREPEAT         equal ${NSTEPS}/${DUMP_FREQ}
variable        TEMP            equal 300.000000
variable        TAU_T           equal 1.000000
# ---------------------- INITIALIZAITION ------------------
units           metal
boundary        p p p
atom_style      atomic
atom_modify     map yes
# --------------------- ATOM DEFINITION ------------------
read_data       /pscratch/sd/y/yifanl/Work/h2o/pimd/initial_config/conf01
Reading data file ...
  orthogonal box = (0 0 0) to (24.76926 24.76926 24.76926)
  1 by 1 by 1 MPI processor grid
  reading atoms ...
  1536 atoms
  read_data CPU = 0.005 seconds
mass            1 16.000000
mass            2 1.000000
replicate       2 2 2
Replication is creating a 2x2x2 = 8 times larger system...
  orthogonal box = (0 0 0) to (49.53852 49.53852 49.53852)
  1 by 1 by 1 MPI processor grid
  12288 atoms
  replicate CPU = 0.001 seconds
# --------------------- FORCE FIELDS ---------------------
pair_style      deepmd /pscratch/sd/y/yifanl/Work/h2o/pimd/benchmark/graph.pb
Summary of lammps deepmd module ...
  >>> Info of deepmd-kit:
  installed to:       /opt/deepmd-kit
  source:             
  source branch:      HEAD
  source commit:      5ec5eae
  source commit at:   2024-02-04 18:53:26 -0500
  support model ver.: 1.1 
  build variant:      cuda
  build with tf inc:  /opt/deepmd-kit/lib/python3.11/site-packages/tensorflow/include;/opt/deepmd-kit/include
  build with tf lib:  /opt/deepmd-kit/lib/python3.11/site-packages/tensorflow/libtensorflow_cc.so.2
  set tf intra_op_parallelism_threads: 0
  set tf inter_op_parallelism_threads: 0
  >>> Info of lammps module:
  use deepmd-kit at:  /opt/deepmd-kitpair_coeff * *
# --------------------- MD SETTINGS ----------------------
neighbor        2.0 bin
neigh_modify    every 10 delay 0 check no
timestep        0.000500
thermo          ${THERMO_FREQ}
thermo          1
thermo_style    custom step pe
#dump            1 all custom ${DUMP_FREQ} ${ibead}.xyz id type x y z
#dump_modify     1 sort id
fix 1 all pimd/langevin ensemble nvt integrator obabo temp ${TEMP} thermostat PILE_L 1234 tau ${TAU_T}
fix 1 all pimd/langevin ensemble nvt integrator obabo temp 300 thermostat PILE_L 1234 tau ${TAU_T}
fix 1 all pimd/langevin ensemble nvt integrator obabo temp 300 thermostat PILE_L 1234 tau 1
# --------------------- RUN ------------------------------
run             ${NSTEPS}
run             1000

CITE-CITE-CITE-CITE-CITE-CITE-CITE-CITE-CITE-CITE-CITE-CITE-CITE

Your simulation uses code contributions which should be cited:

- USER-DEEPMD package:

@article{Wang_ComputPhysCommun_2018_v228_p178,
  author = {Wang, Han and Zhang, Linfeng and Han, Jiequn and E, Weinan},
  doi = {10.1016/j.cpc.2018.03.016},
  url = {https://doi.org/10.1016/j.cpc.2018.03.016},
  year = 2018,
  month = {jul},
  publisher = {Elsevier {BV}},
  volume = 228,
  journal = {Comput. Phys. Commun.},
  title = {{DeePMD-kit: A deep learning package for many-body potential energy representation and molecular dynamics}},
  pages = {178--184}
}
@misc{Zeng_JChemPhys_2023_v159_p054801,
  title  = {{DeePMD-kit v2: A software package for deep potential models}},
  author =   {Jinzhe Zeng and Duo Zhang and Denghui Lu and Pinghui Mo and Zeyu Li
         and Yixiao Chen and Mari{\'a}n Rynik and Li'ang Huang and Ziyao Li and 
         Shaochen Shi and Yingze Wang and Haotian Ye and Ping Tuo and Jiabin
         Yang and Ye Ding and Yifan Li and Davide Tisi and Qiyu Zeng and Han 
         Bao and Yu Xia and Jiameng Huang and Koki Muraoka and Yibo Wang and 
         Junhan Chang and Fengbo Yuan and Sigbj{\o}rn L{\o}land Bore and Chun
         Cai and Yinnian Lin and Bo Wang and Jiayan Xu and Jia-Xin Zhu and 
         Chenxing Luo and Yuzhi Zhang and Rhys E A Goodall and Wenshuo Liang
         and Anurag Kumar Singh and Sikai Yao and Jingchao Zhang and Renata
         Wentzcovitch and Jiequn Han and Jie Liu and Weile Jia and Darrin M
         York and Weinan E and Roberto Car and Linfeng Zhang and Han Wang},
  journal =  {J. Chem. Phys.},
  volume =   159,
  issue =    5,  
  year =    2023,
  pages  =   054801,
  doi =      {10.1063/5.0155600},
}

CITE-CITE-CITE-CITE-CITE-CITE-CITE-CITE-CITE-CITE-CITE-CITE-CITE

Generated 0 of 1 mixed pair_coeff terms from geometric mixing rule

Initializing PI Langevin equation thermostat...
Bead ID    |    omega    |    tau    |    c1    |    c2
    0     0.00000000e+00 1.00000000e+00 9.99750031e-01 2.23578850e-02
    1     2.46383091e+02 2.02936004e-03 8.84094302e-01 4.67308533e-01
    2     4.90393378e+02 1.01958962e-03 7.82550604e-01 6.22586984e-01
    3     7.29680909e+02 6.85231028e-04 6.94307415e-01 7.19678548e-01
    4     9.61941214e+02 5.19782282e-04 6.18183088e-01 7.86034141e-01
    5     1.18493750e+03 4.21963184e-04 5.52960477e-01 8.33207484e-01
    6     1.39652219e+03 3.58032263e-04 4.97449570e-01 8.67492896e-01
    7     1.59465761e+03 3.13546932e-04 4.50530815e-01 8.92760878e-01
    8     1.77743560e+03 2.81304144e-04 4.11182633e-01 9.11552984e-01
    9     1.94309592e+03 2.57321317e-04 3.78496688e-01 9.25602646e-01
    10     2.09004316e+03 2.39229510e-04 3.51684231e-01 9.36118690e-01
    11     2.21686214e+03 2.25544021e-04 3.30076422e-01 9.43954213e-01
    12     2.32233153e+03 2.15300871e-04 3.13120943e-01 9.49713259e-01
    13     2.40543559e+03 2.07862560e-04 3.00376739e-01 9.53820641e-01
    14     2.46537400e+03 2.02808986e-04 2.91508242e-01 9.56568317e-01
    15     2.50156951e+03 1.99874518e-04 2.86280050e-01 9.58145987e-01
    16     2.51367353e+03 1.98912068e-04 2.84552711e-01 9.58660396e-01
    17     2.50156951e+03 1.99874518e-04 2.86280050e-01 9.58145987e-01
    18     2.46537400e+03 2.02808986e-04 2.91508242e-01 9.56568317e-01
    19     2.40543559e+03 2.07862560e-04 3.00376739e-01 9.53820641e-01
    20     2.32233153e+03 2.15300871e-04 3.13120943e-01 9.49713259e-01
    21     2.21686214e+03 2.25544021e-04 3.30076422e-01 9.43954213e-01
    22     2.09004316e+03 2.39229510e-04 3.51684231e-01 9.36118690e-01
    23     1.94309592e+03 2.57321317e-04 3.78496688e-01 9.25602646e-01
    24     1.77743560e+03 2.81304144e-04 4.11182633e-01 9.11552984e-01
    25     1.59465761e+03 3.13546932e-04 4.50530815e-01 8.92760878e-01
    26     1.39652219e+03 3.58032263e-04 4.97449570e-01 8.67492896e-01
    27     1.18493750e+03 4.21963184e-04 5.52960477e-01 8.33207484e-01
    28     9.61941214e+02 5.19782282e-04 6.18183088e-01 7.86034141e-01
    29     7.29680909e+02 6.85231028e-04 6.94307415e-01 7.19678548e-01
    30     4.90393378e+02 1.01958962e-03 7.82550604e-01 6.22586984e-01
    31     2.46383091e+02 2.02936004e-03 8.84094302e-01 4.67308533e-01
PILE_L thermostat successfully initialized!

Neighbor list info ...
  update: every = 10 steps, delay = 0 steps, check = no
  max neighbors/atom: 2000, page size: 100000
  master list distance cutoff = 8
  ghost atom cutoff = 8
  binsize = 4, bins = 13 13 13
  1 neighbor lists, perpetual/occasional/extra = 1 0 0
  (1) pair deepmd, perpetual
      attributes: full, newton on
      pair build: full/bin/atomonly
      stencil: full/bin/3d
      bin: standard
Per MPI rank memory allocation (min/avg/max) = 15.5 | 15.5 | 15.5 Mbytes
   Step         PotEng    
         0  -1914325.3    
         1  -1914113.3    
         2  -1913943.3    
         3  -1913821.4    
         4  -1913736.9    
         5  -1913656.5    
         6  -1913588.1    
         7  -1913525.8    
         8  -1913498.7    
         9  -1913465.9    
        10  -1913473.2    
        11  -1913469.4    
        12  -1913466.4    
        13  -1913488.5    
        14  -1913506.4    
        15  -1913501.2    
        16  -1913484      
        17  -1913472.9    
        18  -1913447.4    
        19  -1913454.1    
        20  -1913457.1    
        21  -1913490.4    
        22  -1913516.9    
        23  -1913547.9    
        24  -1913563.8    
        25  -1913550.5    
        26  -1913540.1    
        27  -1913532.2    
        28  -1913524.3    
        29  -1913520      
        30  -1913501.7    
        31  -1913481.5    
        32  -1913489.9    
        33  -1913500.8    
        34  -1913497.5    
        35  -1913496.2    
        36  -1913477.8    
        37  -1913452      
        38  -1913434.8    
        39  -1913439.8    
        40  -1913438.7    
        41  -1913444.4    
        42  -1913445      
        43  -1913439      
        44  -1913457.2    
        45  -1913481.6    
        46  -1913495.7    
        47  -1913493      
        48  -1913489.8    
        49  -1913501.7    
        50  -1913490.1    
        51  -1913506.5    
        52  -1913502.8    
        53  -1913501.7    
        54  -1913467.5    
        55  -1913469.5    
        56  -1913448.7    
        57  -1913457.5    
        58  -1913471.7    
        59  -1913472.4    
        60  -1913487.7    
        61  -1913481      
        62  -1913480.8    
        63  -1913478.1    
        64  -1913503.7    
        65  -1913500.3    
        66  -1913508.5    
        67  -1913506.1    
        68  -1913493.9    
        69  -1913495.2    
        70  -1913496.8    
        71  -1913516.8    
        72  -1913507      
        73  -1913495      
        74  -1913488.6    
        75  -1913491.1    
        76  -1913497.4    
        77  -1913492.7    
        78  -1913468.9    
        79  -1913457      
        80  -1913462.7    
        81  -1913475.5    
        82  -1913474.2    
        83  -1913454.4    
        84  -1913459      
        85  -1913468.2    
        86  -1913473.2    
        87  -1913498.1    
        88  -1913492.8    
        89  -1913477.9    
        90  -1913477.9    
        91  -1913498.2    
        92  -1913505      
        93  -1913490.6    
        94  -1913496.8    
        95  -1913507.4    
        96  -1913492.8    
        97  -1913490.1    
        98  -1913486.9    
        99  -1913474.8    
       100  -1913462.2    
       101  -1913461.9    
       102  -1913479.5    
       103  -1913480.3    
       104  -1913482.6    
       105  -1913490.7    
       106  -1913482.3    
       107  -1913495.6    
       108  -1913479      
       109  -1913502      
       110  -1913499.9    
       111  -1913470.5    
       112  -1913503.4    
       113  -1913488.8    
       114  -1913495.4    
       115  -1913496.8    
       116  -1913499.3    
       117  -1913505.8    
       118  -1913482.1    
       119  -1913466.3    
       120  -1913460.3    
       121  -1913449.9    
       122  -1913473.8    
       123  -1913473.8    
       124  -1913460.9    
       125  -1913474.5    
       126  -1913486.6    
       127  -1913462.5    
       128  -1913476.2    
       129  -1913462      
       130  -1913486.8    
       131  -1913473.4    
       132  -1913467.3    
       133  -1913468.3    
       134  -1913477      
       135  -1913484      
       136  -1913485.1    
       137  -1913480.2    
       138  -1913485.5    
       139  -1913475.2    
       140  -1913476      
       141  -1913471.2    
       142  -1913469.4    
       143  -1913462      
       144  -1913466.6    
       145  -1913455.2    
       146  -1913461.2    
       147  -1913486.4    
       148  -1913485.4    
       149  -1913485      
       150  -1913485.9    
       151  -1913498.4    
       152  -1913490.1    
       153  -1913482.3    
       154  -1913486.3    
       155  -1913498.4    
       156  -1913498.3    
       157  -1913495.6    
       158  -1913492.1    
       159  -1913469.9    
       160  -1913464.9    
       161  -1913472.6    
       162  -1913452.3    
       163  -1913445.5    
       164  -1913445.2    
       165  -1913447.7    
       166  -1913459.5    
       167  -1913461.6    
       168  -1913437.8    
       169  -1913459      
       170  -1913451.7    
       171  -1913455.8    
       172  -1913460.1    
       173  -1913468.1    
       174  -1913472.7    
       175  -1913458.8    
       176  -1913465.2    
       177  -1913450.2    
       178  -1913460      
       179  -1913453.2    
       180  -1913486      
       181  -1913476      
       182  -1913467.6    
       183  -1913458.9    
       184  -1913462.6    
       185  -1913449.9    
       186  -1913449.3    
       187  -1913467.5    
       188  -1913487.3    
       189  -1913485.8    
       190  -1913464.3    
       191  -1913473.1    
       192  -1913471.7    
       193  -1913467      
       194  -1913457.8    
       195  -1913452.7    
       196  -1913436.9    
       197  -1913468.2    
       198  -1913450.9    
       199  -1913437.8    
       200  -1913446.1    
       201  -1913454.2    
       202  -1913448.3    
       203  -1913445.9    
       204  -1913439.5    
       205  -1913426.6    
       206  -1913437.6    
       207  -1913432      
       208  -1913446.4    
       209  -1913447.3    
       210  -1913424.7    
       211  -1913441.9    
       212  -1913461.8    
       213  -1913481.9    
       214  -1913474.2    
       215  -1913482.1    
       216  -1913490.3    
       217  -1913501.4    
       218  -1913508      
       219  -1913495.7    
       220  -1913480.2    
       221  -1913460.7    
       222  -1913465.3    
       223  -1913476.4    
       224  -1913457.3    
       225  -1913456.5    
       226  -1913468.6    
       227  -1913454.7    
       228  -1913445.7    
       229  -1913441.3    
       230  -1913425.6    
       231  -1913447.2    
       232  -1913463.5    
       233  -1913468.7    
       234  -1913460.2    
       235  -1913459.4    
       236  -1913457.9    
       237  -1913459.7    
       238  -1913468.2    
       239  -1913471.8    
       240  -1913472.1    
       241  -1913469.8    
       242  -1913449.4    
       243  -1913451.5    
       244  -1913452.4    
       245  -1913453.4    
       246  -1913465.4    
       247  -1913455.7    
       248  -1913456      
       249  -1913472.8    
       250  -1913481.1    
       251  -1913462      
       252  -1913474.9    
       253  -1913472.7    
       254  -1913459.4    
       255  -1913461.2    
       256  -1913475.2    
       257  -1913480.1    
       258  -1913477.5    
       259  -1913485.9    
       260  -1913465.8    
       261  -1913479.1    
       262  -1913480.3    
       263  -1913477.9    
       264  -1913472.9    
       265  -1913476.4    
       266  -1913481.8    
       267  -1913507.2    
       268  -1913464.7    
       269  -1913464.1    
       270  -1913482.8    
       271  -1913473.4    
       272  -1913481.4    
       273  -1913482.7    
       274  -1913485.1    
       275  -1913481.8    
       276  -1913457.1    
       277  -1913469.7    
       278  -1913470.9    
       279  -1913462      
       280  -1913452.5    
       281  -1913455.5    
       282  -1913468.4    
       283  -1913486.8    
       284  -1913478.7    
       285  -1913473.6    
       286  -1913455.6    
       287  -1913450.3    
       288  -1913444.7    
       289  -1913464.8    
       290  -1913458.9    
       291  -1913469.4    
       292  -1913479.1    
       293  -1913459.7    
       294  -1913441.6    
       295  -1913435.2    
       296  -1913455      
       297  -1913457.1    
       298  -1913445.1    
       299  -1913456      
       300  -1913448.1    
       301  -1913445.6    
       302  -1913460      
       303  -1913451.1    
       304  -1913471.6    
       305  -1913478.6    
       306  -1913476.9    
       307  -1913467.3    
       308  -1913469.6    
       309  -1913455.9    
       310  -1913455.6    
       311  -1913444.7    
       312  -1913437      
       313  -1913449.9    
       314  -1913460.4    
       315  -1913453.7    
       316  -1913429.2    
       317  -1913436.6    
       318  -1913454.4    
       319  -1913447      
       320  -1913429.1    
       321  -1913424.1    
       322  -1913432.9    
       323  -1913424.6    
       324  -1913447.9    
       325  -1913434.1    
       326  -1913438.7    
       327  -1913436.7    
       328  -1913455.6    
       329  -1913443.9    
       330  -1913441.1    
       331  -1913453.6    
       332  -1913447.6    
       333  -1913451.5    
       334  -1913448.8    
       335  -1913450.4    
       336  -1913459.3    
       337  -1913460.2    
       338  -1913438      
       339  -1913434.3    
       340  -1913446      
       341  -1913449.4    
       342  -1913454.8    
       343  -1913486.5    
       344  -1913474.8    
       345  -1913471.3    
       346  -1913453.1    
       347  -1913473.7    
       348  -1913455.6    
       349  -1913468.4    
       350  -1913443.7    
       351  -1913437.7    
       352  -1913440      
       353  -1913452      
       354  -1913451.5    
       355  -1913439.3    
       356  -1913449.5    
       357  -1913442.4    
       358  -1913453.4    
       359  -1913465      
       360  -1913457      
       361  -1913446.3    
       362  -1913440.1    
       363  -1913450.4    
       364  -1913479.1    
       365  -1913479.1    
       366  -1913460.7    
       367  -1913463.1    
       368  -1913469.6    
       369  -1913460.3    
       370  -1913457.9    
       371  -1913447.6    
       372  -1913437.9    
       373  -1913453.6    
       374  -1913463.6    
       375  -1913440.4    
       376  -1913434.2    
       377  -1913449.5    
       378  -1913446      
       379  -1913451.1    
       380  -1913435.9    
       381  -1913421.5    
       382  -1913422.1    
       383  -1913438.2    
       384  -1913448      
       385  -1913439.2    
       386  -1913456.7    
       387  -1913435.4    
       388  -1913443.6    
       389  -1913450.4    
       390  -1913449.8    
       391  -1913452.7    
       392  -1913469.7    
       393  -1913466      
       394  -1913471.4    
       395  -1913467.2    
       396  -1913462.2    
       397  -1913439.7    
       398  -1913449      
       399  -1913442.6    
       400  -1913445.2    
       401  -1913446.8    
       402  -1913456.3    
       403  -1913462.7    
       404  -1913461.3    
       405  -1913458.3    
       406  -1913434.2    
       407  -1913439.8    
       408  -1913448.4    
       409  -1913464.9    
       410  -1913460.9    
       411  -1913453.3    
       412  -1913443.9    
       413  -1913448.1    
       414  -1913455.4    
       415  -1913458.3    
       416  -1913438.2    
       417  -1913445.9    
       418  -1913463.1    
       419  -1913477.7    
       420  -1913464.4    
       421  -1913448.2    
       422  -1913434.6    
       423  -1913438.6    
       424  -1913438.4    
       425  -1913447.8    
       426  -1913430      
       427  -1913433.2    
       428  -1913426.9    
       429  -1913423      
       430  -1913438      
       431  -1913428.5    
       432  -1913447.2    
       433  -1913452.7    
       434  -1913437.2    
       435  -1913418.4    
       436  -1913422.2    
       437  -1913419      
       438  -1913443.8    
       439  -1913452.5    
       440  -1913470.5    
       441  -1913448      
       442  -1913444.1    
       443  -1913439.4    
       444  -1913402.3    
       445  -1913420.1    
       446  -1913418.2    
       447  -1913433.1    
       448  -1913456      
       449  -1913456.6    
       450  -1913459.2    
       451  -1913444.4    
       452  -1913437      
       453  -1913447.6    
       454  -1913450.1    
       455  -1913434.1    
       456  -1913441.7    
       457  -1913442      
       458  -1913428.6    
       459  -1913456.1    
       460  -1913470.4    
       461  -1913454.5    
       462  -1913428.6    
       463  -1913429.4    
       464  -1913442.6    
       465  -1913453.1    
       466  -1913434.4    
       467  -1913437.9    
       468  -1913435.5    
       469  -1913440.2    
       470  -1913449.4    
       471  -1913443.9    
       472  -1913457.9    
       473  -1913457.1    
       474  -1913443.7    
       475  -1913437.5    
       476  -1913442.3    
       477  -1913462.9    
       478  -1913463.1    
       479  -1913438      
       480  -1913412.6    
       481  -1913417.8    
       482  -1913448.7    
       483  -1913437.1    
       484  -1913424.7    
       485  -1913441.5    
       486  -1913468      
       487  -1913451.4    
       488  -1913442      
       489  -1913451.8    
       490  -1913446.4    
       491  -1913473      
       492  -1913464.5    
       493  -1913466.4    
       494  -1913462      
       495  -1913468.5    
       496  -1913439.1    
       497  -1913432.1    
       498  -1913448.9    
       499  -1913468.4    
       500  -1913469.6    
       501  -1913463.5    
       502  -1913456      
       503  -1913454.8    
       504  -1913454.5    
       505  -1913438.8    
       506  -1913430.6    
       507  -1913444.1    
       508  -1913434.9    
       509  -1913425.4    
       510  -1913428.9    
       511  -1913422.7    
       512  -1913444.1    
       513  -1913447.3    
       514  -1913429.8    
       515  -1913429.4    
       516  -1913439.3    
       517  -1913446.7    
       518  -1913435.2    
       519  -1913417.6    
       520  -1913425.5    
       521  -1913408      
       522  -1913418.9    
       523  -1913427.7    
       524  -1913443.1    
       525  -1913428.5    
       526  -1913446.9    
       527  -1913477.1    
       528  -1913477.6    
       529  -1913475.4    
       530  -1913466.3    
       531  -1913459.5    
       532  -1913455.4    
       533  -1913462.6    
       534  -1913458.5    
       535  -1913459.3    
       536  -1913450.5    
       537  -1913431.7    
       538  -1913431.1    
       539  -1913439.9    
       540  -1913422.4    
       541  -1913423.4    
       542  -1913438.2    
       543  -1913455.3    
       544  -1913442.7    
       545  -1913464.9    
       546  -1913448.3    
       547  -1913434.9    
       548  -1913456      
       549  -1913479.8    
       550  -1913456.9    
       551  -1913441.4    
       552  -1913440.6    
       553  -1913436.5    
       554  -1913434.5    
       555  -1913452.9    
       556  -1913438.1    
       557  -1913439.2    
       558  -1913435.8    
       559  -1913436.7    
       560  -1913433.1    
       561  -1913428.5    
       562  -1913430.2    
       563  -1913439.8    
       564  -1913430.2    
       565  -1913428.7    
       566  -1913437.3    
       567  -1913449.1    
       568  -1913446.6    
       569  -1913436.5    
       570  -1913445      
       571  -1913443.8    
       572  -1913437      
       573  -1913435.6    
       574  -1913415.9    
       575  -1913429.7    
       576  -1913432.8    
       577  -1913444.7    
       578  -1913444.5    
       579  -1913433.5    
       580  -1913439.2    
       581  -1913433.2    
       582  -1913416.4    
       583  -1913419.5    
       584  -1913435      
       585  -1913443      
       586  -1913457.1    
       587  -1913451.3    
       588  -1913445.4    
       589  -1913468.6    
       590  -1913462.3    
       591  -1913448      
       592  -1913443.1    
       593  -1913453.6    
       594  -1913436.9    
       595  -1913442.2    
       596  -1913443.3    
       597  -1913455.9    
       598  -1913455.9    
       599  -1913420.4    
       600  -1913416.8    
       601  -1913415.4    
       602  -1913434.1    
       603  -1913428.6    
       604  -1913433.4    
       605  -1913427.3    
       606  -1913444.8    
       607  -1913443      
       608  -1913454.9    
       609  -1913454.3    
       610  -1913451      
       611  -1913432.7    
       612  -1913433.7    
       613  -1913436.2    
       614  -1913417.1    
       615  -1913422.5    
       616  -1913431.1    
       617  -1913453.2    
       618  -1913445.2    
       619  -1913441.8    
       620  -1913451.9    
       621  -1913468.9    
       622  -1913476.7    
       623  -1913485.9    
       624  -1913458.6    
       625  -1913449.5    
       626  -1913447      
       627  -1913450.9    
       628  -1913436.8    
       629  -1913432.3    
       630  -1913435.5    
       631  -1913416.3    
       632  -1913425.1    
       633  -1913430.8    
       634  -1913428.7    
       635  -1913431      
       636  -1913432.1    
       637  -1913435.2    
       638  -1913424.7    
       639  -1913431.8    
       640  -1913442      
       641  -1913447      
       642  -1913445.3    
       643  -1913432.8    
       644  -1913429.3    
       645  -1913427      
       646  -1913423.8    
       647  -1913419.1    
       648  -1913424      
       649  -1913447.8    
       650  -1913456.6    
       651  -1913452.1    
       652  -1913438.8    
       653  -1913446.4    
       654  -1913426.6    
       655  -1913420.8    
       656  -1913419.7    
       657  -1913393.3    
       658  -1913408.6    
       659  -1913426.4    
       660  -1913431.2    
       661  -1913445.1    
       662  -1913459.9    
       663  -1913432.6    
       664  -1913407.9    
       665  -1913410.4    
       666  -1913423      
       667  -1913436.8    
       668  -1913442.1    
       669  -1913440      
       670  -1913424.9    
       671  -1913429.6    
       672  -1913436.5    
       673  -1913438.6    
       674  -1913432.5    
       675  -1913431.8    
       676  -1913426.4    
       677  -1913417.8    
       678  -1913427.1    
       679  -1913438.6    
       680  -1913439.8    
       681  -1913444.6    
       682  -1913449.5    
       683  -1913443.6    
       684  -1913439.1    
       685  -1913448.7    
       686  -1913436.5    
       687  -1913432.4    
       688  -1913430.3    
       689  -1913432.5    
       690  -1913433.8    
       691  -1913426.6    
       692  -1913420.5    
       693  -1913413.9    
       694  -1913406.4    
       695  -1913413.3    
       696  -1913419.3    
       697  -1913426.3    
       698  -1913414.3    
       699  -1913418      
       700  -1913408.6    
       701  -1913432.3    
       702  -1913418.5    
       703  -1913409.9    
       704  -1913432.3    
       705  -1913444.2    
       706  -1913449.5    
       707  -1913437.9    
       708  -1913426.3    
       709  -1913414.5    
       710  -1913397.9    
       711  -1913417.8    
       712  -1913406.5    
       713  -1913406.1    
       714  -1913401.4    
       715  -1913409.6    
       716  -1913423      
       717  -1913413.6    
       718  -1913411.7    
       719  -1913414.8    
       720  -1913401.5    
       721  -1913402.2    
       722  -1913427.1    
       723  -1913413.7    
       724  -1913428.6    
       725  -1913433.5    
       726  -1913413.7    
       727  -1913419.6    
       728  -1913419.4    
       729  -1913414      
       730  -1913400.3    
       731  -1913408.2    
       732  -1913407      
       733  -1913430.4    
       734  -1913426.4    
       735  -1913394.9    
       736  -1913393.2    
       737  -1913387.9    
       738  -1913406.2    
       739  -1913428.6    
       740  -1913433.4    
       741  -1913415.1    
       742  -1913414.3    
       743  -1913433.1    
       744  -1913431.8    
       745  -1913439.6    
       746  -1913431.4    
       747  -1913413.7    
       748  -1913443.5    
       749  -1913445      
       750  -1913444.5    
       751  -1913422.4    
       752  -1913431.1    
       753  -1913436.1    
       754  -1913433.9    
       755  -1913431.3    
       756  -1913410.1    
       757  -1913404.9    
       758  -1913400.9    
       759  -1913418.2    
       760  -1913435.3    
       761  -1913428.3    
       762  -1913424.6    
       763  -1913432.7    
       764  -1913423.2    
       765  -1913433.1    
       766  -1913441.1    
       767  -1913442.9    
       768  -1913432.7    
       769  -1913409.3    
       770  -1913444.3    
       771  -1913454.5    
       772  -1913423.8    
       773  -1913434.9    
       774  -1913443.8    
       775  -1913441      
       776  -1913438.9    
       777  -1913432.6    
       778  -1913421.9    
       779  -1913410.6    
       780  -1913395.4    
       781  -1913397.9    
       782  -1913401.7    
       783  -1913417.1    
       784  -1913408.4    
       785  -1913410.4    
       786  -1913394.2    
       787  -1913411.1    
       788  -1913394.9    
       789  -1913421      
       790  -1913415      
       791  -1913406.9    
       792  -1913420.7    
       793  -1913427.8    
       794  -1913417.9    
       795  -1913420.9    
       796  -1913427.9    
       797  -1913418.5    
       798  -1913403.7    
       799  -1913417.7    
       800  -1913419.6    
       801  -1913424.7    
       802  -1913439.3    
       803  -1913433      
       804  -1913451.9    
       805  -1913439.5    
       806  -1913435.5    
       807  -1913419      
       808  -1913424.8    
       809  -1913435.3    
       810  -1913434.7    
       811  -1913428.3    
       812  -1913421.5    
       813  -1913398.2    
       814  -1913399.6    
       815  -1913406.9    
       816  -1913410      
       817  -1913416.4    
       818  -1913425.6    
       819  -1913412      
       820  -1913418.9    
       821  -1913430.8    
       822  -1913421.5    
       823  -1913420      
       824  -1913413.8    
       825  -1913388.9    
       826  -1913403.7    
       827  -1913409.3    
       828  -1913418.3    
       829  -1913418.7    
       830  -1913409.4    
       831  -1913406.8    
       832  -1913401.6    
       833  -1913403      
       834  -1913423.1    
       835  -1913418.2    
       836  -1913421.6    
       837  -1913417      
       838  -1913417.8    
       839  -1913431.9    
       840  -1913421.7    
       841  -1913419.1    
       842  -1913405.8    
       843  -1913408.3    
       844  -1913412.5    
       845  -1913412.7    
       846  -1913424      
       847  -1913426.6    
       848  -1913418.2    
       849  -1913431.1    
       850  -1913438.8    
       851  -1913442.1    
       852  -1913430.5    
       853  -1913415.6    
       854  -1913409.5    
       855  -1913396.3    
       856  -1913418.5    
       857  -1913422.9    
       858  -1913412.2    
       859  -1913406.9    
       860  -1913410.1    
       861  -1913404.6    
       862  -1913405.7    
       863  -1913439.6    
       864  -1913428.6    
       865  -1913437.2    
       866  -1913452.8    
       867  -1913426.8    
       868  -1913413.4    
       869  -1913415.3    
       870  -1913389.8    
       871  -1913403      
       872  -1913426.1    
       873  -1913433.3    
       874  -1913421.2    
       875  -1913414.2    
       876  -1913409.5    
       877  -1913413.2    
       878  -1913411.5    
       879  -1913389.7    
       880  -1913409.8    
       881  -1913418      
       882  -1913427.8    
       883  -1913418.9    
       884  -1913431.5    
       885  -1913415.6    
       886  -1913418.9    
       887  -1913425.4    
       888  -1913422.1    
       889  -1913411.3    
       890  -1913426.8    
       891  -1913431.4    
       892  -1913442.6    
       893  -1913425      
       894  -1913445      
       895  -1913427.7    
       896  -1913422.7    
       897  -1913415.6    
       898  -1913433.1    
       899  -1913417.1    
       900  -1913429.3    
       901  -1913426.3    
       902  -1913424.1    
       903  -1913416.4    
       904  -1913441.3    
       905  -1913424.9    
       906  -1913418.2    
       907  -1913420      
       908  -1913427.7    
       909  -1913403.6    
       910  -1913418.4    
       911  -1913441.4    
       912  -1913446      
       913  -1913406.6    
       914  -1913399.9    
       915  -1913431      
       916  -1913421      
       917  -1913432.7    
       918  -1913425.3    
       919  -1913409.7    
       920  -1913398.9    
       921  -1913401.1    
       922  -1913407.5    
       923  -1913407.4    
       924  -1913410.5    
       925  -1913406.9    
       926  -1913435.2    
       927  -1913420.7    
       928  -1913419.7    
       929  -1913436.4    
       930  -1913452.5    
       931  -1913442.3    
       932  -1913410.8    
       933  -1913423.5    
       934  -1913417.5    
       935  -1913409.9    
       936  -1913423.1    
       937  -1913439.6    
       938  -1913439.7    
       939  -1913439      
       940  -1913442.1    
       941  -1913427.8    
       942  -1913401.5    
       943  -1913413      
       944  -1913410.8    
       945  -1913420.4    
       946  -1913413.1    
       947  -1913419.3    
       948  -1913413.2    
       949  -1913385.8    
       950  -1913396.5    
       951  -1913416.6    
       952  -1913396.4    
       953  -1913388.3    
       954  -1913407.8    
       955  -1913427.4    
       956  -1913425.3    
       957  -1913427      
       958  -1913429.2    
       959  -1913416.8    
       960  -1913411.5    
       961  -1913423.8    
       962  -1913420.1    
       963  -1913412.9    
       964  -1913410.2    
       965  -1913410.3    
       966  -1913409.8    
       967  -1913405.7    
       968  -1913392.4    
       969  -1913396.2    
       970  -1913413.8    
       971  -1913412.7    
       972  -1913419      
       973  -1913413.3    
       974  -1913424.7    
       975  -1913434.8    
       976  -1913433.7    
       977  -1913442.6    
       978  -1913427.7    
       979  -1913430.4    
       980  -1913443.9    
       981  -1913441.6    
       982  -1913421.5    
       983  -1913414      
       984  -1913400.4    
       985  -1913417.4    
       986  -1913414.8    
       987  -1913421.7    
       988  -1913403.6    
       989  -1913403      
       990  -1913430.3    
       991  -1913431.3    
       992  -1913422.9    
       993  -1913414      
       994  -1913413.3    
       995  -1913393.8    
       996  -1913392.2    
       997  -1913391.1    
       998  -1913392.1    
       999  -1913404.6    
      1000  -1913421.9    
Loop time of 288.849 on 1 procs for 1000 steps with 12288 atoms

Performance: 0.150 ns/day, 160.472 hours/ns, 3.462 timesteps/s, 42.541 katom-step/s
101.2% CPU use with 1 MPI tasks x 1 OpenMP threads

MPI task timing breakdown:
Section |  min time  |  avg time  |  max time  |%varavg| %total
---------------------------------------------------------------
Pair    | 154.27     | 154.27     | 154.27     |   0.0 | 53.41
Neigh   | 6.2857     | 6.2857     | 6.2857     |   0.0 |  2.18
Comm    | 0.17677    | 0.17677    | 0.17677    |   0.0 |  0.06
Output  | 0.0219     | 0.0219     | 0.0219     |   0.0 |  0.01
Modify  | 127.96     | 127.96     | 127.96     |   0.0 | 44.30
Other   |            | 0.1335     |            |       |  0.05

Nlocal:          12288 ave       12288 max       12288 min
Histogram: 1 0 0 0 0 0 0 0 0 0
Nghost:          15854 ave       15854 max       15854 min
Histogram: 1 0 0 0 0 0 0 0 0 0
Neighs:              0 ave           0 max           0 min
Histogram: 1 0 0 0 0 0 0 0 0 0
FullNghs:  2.65565e+06 ave 2.65565e+06 max 2.65565e+06 min
Histogram: 1 0 0 0 0 0 0 0 0 0

Total # of neighbors = 2655648
Ave neighs/atom = 216.11719
Neighbor list builds = 100
Dangerous builds not checked
write_data      final.${ibead}
write_data      final.02
System init for write_data ...
Generated 0 of 1 mixed pair_coeff terms from geometric mixing rule

Initializing PI Langevin equation thermostat...
Bead ID    |    omega    |    tau    |    c1    |    c2
    0     0.00000000e+00 1.00000000e+00 9.99750031e-01 2.23578850e-02
    1     2.46383091e+02 2.02936004e-03 8.84094302e-01 4.67308533e-01
    2     4.90393378e+02 1.01958962e-03 7.82550604e-01 6.22586984e-01
    3     7.29680909e+02 6.85231028e-04 6.94307415e-01 7.19678548e-01
    4     9.61941214e+02 5.19782282e-04 6.18183088e-01 7.86034141e-01
    5     1.18493750e+03 4.21963184e-04 5.52960477e-01 8.33207484e-01
    6     1.39652219e+03 3.58032263e-04 4.97449570e-01 8.67492896e-01
    7     1.59465761e+03 3.13546932e-04 4.50530815e-01 8.92760878e-01
    8     1.77743560e+03 2.81304144e-04 4.11182633e-01 9.11552984e-01
    9     1.94309592e+03 2.57321317e-04 3.78496688e-01 9.25602646e-01
    10     2.09004316e+03 2.39229510e-04 3.51684231e-01 9.36118690e-01
    11     2.21686214e+03 2.25544021e-04 3.30076422e-01 9.43954213e-01
    12     2.32233153e+03 2.15300871e-04 3.13120943e-01 9.49713259e-01
    13     2.40543559e+03 2.07862560e-04 3.00376739e-01 9.53820641e-01
    14     2.46537400e+03 2.02808986e-04 2.91508242e-01 9.56568317e-01
    15     2.50156951e+03 1.99874518e-04 2.86280050e-01 9.58145987e-01
    16     2.51367353e+03 1.98912068e-04 2.84552711e-01 9.58660396e-01
    17     2.50156951e+03 1.99874518e-04 2.86280050e-01 9.58145987e-01
    18     2.46537400e+03 2.02808986e-04 2.91508242e-01 9.56568317e-01
    19     2.40543559e+03 2.07862560e-04 3.00376739e-01 9.53820641e-01
    20     2.32233153e+03 2.15300871e-04 3.13120943e-01 9.49713259e-01
    21     2.21686214e+03 2.25544021e-04 3.30076422e-01 9.43954213e-01
    22     2.09004316e+03 2.39229510e-04 3.51684231e-01 9.36118690e-01
    23     1.94309592e+03 2.57321317e-04 3.78496688e-01 9.25602646e-01
    24     1.77743560e+03 2.81304144e-04 4.11182633e-01 9.11552984e-01
    25     1.59465761e+03 3.13546932e-04 4.50530815e-01 8.92760878e-01
    26     1.39652219e+03 3.58032263e-04 4.97449570e-01 8.67492896e-01
    27     1.18493750e+03 4.21963184e-04 5.52960477e-01 8.33207484e-01
    28     9.61941214e+02 5.19782282e-04 6.18183088e-01 7.86034141e-01
    29     7.29680909e+02 6.85231028e-04 6.94307415e-01 7.19678548e-01
    30     4.90393378e+02 1.01958962e-03 7.82550604e-01 6.22586984e-01
    31     2.46383091e+02 2.02936004e-03 8.84094302e-01 4.67308533e-01
PILE_L thermostat successfully initialized!

Total wall time: 0:05:20
