LAMMPS (10 Dec 2025 - Development - patch_24Dec2020-21955-gcf116c2130-modified)
Processor partition = 2
OMP_NUM_THREADS environment is not set. Defaulting to 1 thread.
  using 1 OpenMP thread(s) per MPI task
Loaded 1 plugins from /global/homes/y/yifanl/.conda/envs/dp-pimd-devel/lib/deepmd_lmp
Loaded 1 plugins from /global/homes/y/yifanl/.conda/envs/dp-pimd-devel/lib/deepmd_lmp
clear
OMP_NUM_THREADS environment is not set. Defaulting to 1 thread.
  using 1 OpenMP thread(s) per MPI task
Restoring plugin: deepmd pair style v3.1.1-24-gc346332d by Han Wang
Restoring plugin: deepspin pair style v3.1.1-24-gc346332d by Duo Zhang
Restoring plugin: compute deeptensor/atom v3.1.1-24-gc346332d by Han Wang
Restoring plugin: fix dplr v3.1.1-24-gc346332d by Han Wang
Restoring plugin: kspace pppm/dplr v3.1.1-24-gc346332d by Han Wang
Loaded 1 plugins from /global/homes/y/yifanl/.conda/envs/dp-pimd-devel/lib/deepmd_lmp
Loaded 1 plugins from /global/homes/y/yifanl/.conda/envs/dp-pimd-devel/lib/deepmd_lmp
# --------------------- VARIABLES-------------------------
variable        ibead           uloop 99 pad
variable        NSTEPS          equal 100
variable        THERMO_FREQ     equal 1
#variable        DUMP_FREQ       equal 4000
#variable        NREPEAT         equal ${NSTEPS}/${DUMP_FREQ}
variable        TEMP            equal 300.000000
variable        TAU_T           equal 1.000000
# ---------------------- INITIALIZAITION ------------------
units           metal
boundary        p p p
atom_style      atomic
atom_modify     map yes
# --------------------- ATOM DEFINITION ------------------
read_data       /pscratch/sd/y/yifanl/Work/h2o/pimd/initial_config/conf01
Reading data file ...
  orthogonal box = (0 0 0) to (24.76926 24.76926 24.76926)
  2 by 2 by 4 MPI processor grid
  reading atoms ...
  1536 atoms
  read_data CPU = 0.016 seconds
mass            1 16.000000
mass            2 1.000000
replicate       7 7 7
Replication is creating a 7x7x7 = 343 times larger system...
  orthogonal box = (0 0 0) to (173.38482 173.38482 173.38482)
  2 by 2 by 4 MPI processor grid
  526848 atoms
  replicate CPU = 0.020 seconds
# --------------------- FORCE FIELDS ---------------------
pair_style      deepmd /pscratch/sd/y/yifanl/Work/h2o/pimd/benchmark/graph.pb
Summary of lammps deepmd module ...
  >>> Info of deepmd-kit:
  installed to:       /global/homes/y/yifanl/.conda/envs/dp-pimd-devel
  source:             v3.1.1-24-gc346332d
  source branch:      devel
  source commit:      c346332d
  source commit at:   2025-11-14 11:37:53 +0000
  support model ver.: 1.1 
  build variant:      cuda
  build with tf inc:  /global/homes/y/yifanl/.conda/envs/dp-pimd-devel/lib/python3.12/site-packages/tensorflow/include;/global/homes/y/yifanl/.conda/envs/dp-pimd-devel/include
  build with tf lib:  /global/homes/y/yifanl/.conda/envs/dp-pimd-devel/lib/python3.12/site-packages/tensorflow/libtensorflow_cc.so.2
  set tf intra_op_parallelism_threads: 0
  set tf inter_op_parallelism_threads: 0
  >>> Info of lammps module:
  use deepmd-kit at:  /global/homes/y/yifanl/.conda/envs/dp-pimd-devel
  source:             v3.1.1-24-gc346332d
  source branch:      devel
  source commit:      c346332d
  source commit at:   2025-11-14 11:37:53 +0000
  build with inc:     
  build with lib:     /global/homes/y/yifanl/.conda/envs/dp-pimd-devel/lib/python3.12/site-packages/tensorflow
pair_coeff * *
# --------------------- MD SETTINGS ----------------------
neighbor        2.0 bin
neigh_modify    every 10 delay 0 check no
timestep        0.000500
#dump            1 all custom ${DUMP_FREQ} ${ibead}.xyz id type x y z
#dump_modify     1 sort id
fix 1 all pimd/langevin ensemble nvt integrator obabo temp ${TEMP} thermostat PILE_L 1234 tau ${TAU_T}
fix 1 all pimd/langevin ensemble nvt integrator obabo temp 300 thermostat PILE_L 1234 tau ${TAU_T}
fix 1 all pimd/langevin ensemble nvt integrator obabo temp 300 thermostat PILE_L 1234 tau 1
thermo_style    custom step pe f_1[11]
thermo          ${THERMO_FREQ}
thermo          1
# --------------------- RUN ------------------------------
run             ${NSTEPS}
run             100

CITE-CITE-CITE-CITE-CITE-CITE-CITE-CITE-CITE-CITE-CITE-CITE-CITE

Your simulation uses code contributions which should be cited:

- USER-DEEPMD package:

@article{Wang_ComputPhysCommun_2018_v228_p178,
  author = {Wang, Han and Zhang, Linfeng and Han, Jiequn and E, Weinan},
  doi = {10.1016/j.cpc.2018.03.016},
  url = {https://doi.org/10.1016/j.cpc.2018.03.016},
  year = 2018,
  month = {jul},
  publisher = {Elsevier {BV}},
  volume = 228,
  journal = {Comput. Phys. Commun.},
  title = {{DeePMD-kit: A deep learning package for many-body potential energy representation and molecular dynamics}},
  pages = {178--184}
}
@article{Zeng_JChemPhys_2023_v159_p054801,
  title  = {{DeePMD-kit v2: A software package for deep potential models}},
  author =   {Jinzhe Zeng and Duo Zhang and Denghui Lu and Pinghui Mo and Zeyu Li
         and Yixiao Chen and Mari{\'a}n Rynik and Li'ang Huang and Ziyao Li and 
         Shaochen Shi and Yingze Wang and Haotian Ye and Ping Tuo and Jiabin
         Yang and Ye Ding and Yifan Li and Davide Tisi and Qiyu Zeng and Han 
         Bao and Yu Xia and Jiameng Huang and Koki Muraoka and Yibo Wang and 
         Junhan Chang and Fengbo Yuan and Sigbj{\o}rn L{\o}land Bore and Chun
         Cai and Yinnian Lin and Bo Wang and Jiayan Xu and Jia-Xin Zhu and 
         Chenxing Luo and Yuzhi Zhang and Rhys E A Goodall and Wenshuo Liang
         and Anurag Kumar Singh and Sikai Yao and Jingchao Zhang and Renata
         Wentzcovitch and Jiequn Han and Jie Liu and Weile Jia and Darrin M
         York and Weinan E and Roberto Car and Linfeng Zhang and Han Wang},
  journal =  {J. Chem. Phys.},
  volume =   159,
  issue =    5,  
  year =    2023,
  pages  =   054801,
  doi =      {10.1063/5.0155600},
}
@Article{Zeng_JChemTheoryComput_2025_v21_p4375,
  author =   {Jinzhe Zeng and Duo Zhang and Anyang Peng and Xiangyu Zhang and Sensen
             He and Yan Wang and Xinzijian Liu and Hangrui Bi and Yifan Li and Chun
             Cai and Chengqian Zhang and Yiming Du and Jia-Xin Zhu and Pinghui Mo
             and Zhengtao Huang and Qiyu Zeng and Shaochen Shi and Xuejian Qin and
             Zhaoxi Yu and Chenxing Luo and Ye Ding and Yun-Pei Liu and Ruosong Shi
             and Zhenyu Wang and Sigbj{\o}rn L{\o}land Bore and Junhan Chang and
             Zhe Deng and Zhaohan Ding and Siyuan Han and Wanrun Jiang and Guolin
             Ke and Zhaoqing Liu and Denghui Lu and Koki Muraoka and Hananeh Oliaei
             and Anurag Kumar Singh and Haohui Que and Weihong Xu and Zhangmancang
             Xu and Yong-Bin Zhuang and Jiayu Dai and Timothy J. Giese and Weile
             Jia and Ben Xu and Darrin M. York and Linfeng Zhang and Han Wang},
    title =    {{DeePMD-kit v3: A Multiple-Backend Framework for Machine Learning
             Potentials}},
  journal =  {J. Chem. Theory Comput.},
  year =     2025,
  volume =   21,
  number =   9,
  pages =    {4375--4385},
  doi =      {10.1021/acs.jctc.5c00340},
}

CITE-CITE-CITE-CITE-CITE-CITE-CITE-CITE-CITE-CITE-CITE-CITE-CITE

Generated 0 of 1 mixed pair_coeff terms from geometric mixing rule
Neighbor list info ...
  update: every = 10 steps, delay = 0 steps, check = no
  max neighbors/atom: 2000, page size: 100000
  master list distance cutoff = 8
  ghost atom cutoff = 8
  binsize = 4, bins = 44 44 44
  1 neighbor lists, perpetual/occasional/extra = 1 0 0
  (1) pair deepmd, perpetual
      attributes: full, newton on
      pair build: full/bin/atomonly
      stencil: full/bin/3d
      bin: standard
Per MPI rank memory allocation (min/avg/max) = 40.09 | 40.09 | 40.09 Mbytes
   Step         PotEng        f_1[11]    
         0  -82076698       0            
         1  -82067501       0            
         2  -82060191       0            
         3  -82055038       0            
         4  -82051099       0            
         5  -82047981       0            
         6  -82045383       0            
         7  -82043082       0            
         8  -82041228       0            
         9  -82040285       0            
        10  -82040044       807          
        11  -82040423       807          
        12  -82041037       807          
        13  -82041510       807          
        14  -82041632       807          
        15  -82041267       807          
        16  -82040634       807          
        17  -82039806       807          
        18  -82039226       807          
        19  -82039141       807          
        20  -82039467       884          
        21  -82040232       884          
        22  -82041386       884          
        23  -82042522       884          
        24  -82043415       884          
        25  -82043660       884          
        26  -82043291       884          
        27  -82042901       884          
        28  -82042387       884          
        29  -82042370       884          
        30  -82042283       963          
        31  -82042242       963          
        32  -82042258       963          
        33  -82042188       963          
        34  -82041889       963          
        35  -82041205       963          
        36  -82040535       963          
        37  -82039813       963          
        38  -82039161       963          
        39  -82038976       963          
        40  -82038996       824          
        41  -82039333       824          
        42  -82039851       824          
        43  -82040341       824          
        44  -82040534       824          
        45  -82040742       824          
        46  -82040672       824          
        47  -82040608       824          
        48  -82040640       824          
        49  -82040745       824          
        50  -82040990       1035         
        51  -82041202       1035         
        52  -82041183       1035         
        53  -82041015       1035         
        54  -82040665       1035         
        55  -82040504       1035         
        56  -82040269       1035         
        57  -82039980       1035         
        58  -82039901       1035         
        59  -82039763       1035         
        60  -82039719       1036         
        61  -82040028       1036         
        62  -82040375       1036         
        63  -82040540       1036         
        64  -82040850       1036         
        65  -82041056       1036         
        66  -82041260       1036         
        67  -82041551       1036         
        68  -82041938       1036         
        69  -82042015       1036         
        70  -82042043       1077         
        71  -82041975       1077         
        72  -82041891       1077         
        73  -82041782       1077         
        74  -82041525       1077         
        75  -82041216       1077         
        76  -82041020       1077         
        77  -82040706       1077         
        78  -82040408       1077         
        79  -82040285       1077         
        80  -82040203       1034         
        81  -82040048       1034         
        82  -82040005       1034         
        83  -82040116       1034         
        84  -82040432       1034         
        85  -82040722       1034         
        86  -82040793       1034         
        87  -82041081       1034         
        88  -82041170       1034         
        89  -82041357       1034         
        90  -82041240       1141         
        91  -82041257       1141         
        92  -82041213       1141         
        93  -82041174       1141         
        94  -82040984       1141         
        95  -82040838       1141         
        96  -82040619       1141         
        97  -82040429       1141         
        98  -82040266       1141         
        99  -82040099       1141         
       100  -82039977       1142         
Loop time of 80.7239 on 16 procs for 100 steps with 526848 atoms

Performance: 0.054 ns/day, 448.466 hours/ns, 1.239 timesteps/s, 652.654 katom-step/s
64.2% CPU use with 16 MPI tasks x 1 OpenMP threads

MPI task timing breakdown:
Section |  min time  |  avg time  |  max time  |%varavg| %total
---------------------------------------------------------------
Pair    | 4.1574     | 4.1733     | 4.2037     |   0.7 |  5.17
Neigh   | 3.21       | 3.2425     | 3.2928     |   1.3 |  4.02
Comm    | 1.4742     | 1.7262     | 1.9132     |   9.6 |  2.14
Output  | 0.022734   | 0.028314   | 0.035266   |   2.6 |  0.04
Modify  | 71.342     | 71.538     | 71.737     |   1.4 | 88.62
Other   |            | 0.01499    |            |       |  0.02

Nlocal:          32928 ave       32988 max       32859 min
Histogram: 2 2 2 2 0 0 0 0 5 3
Nghost:        29820.1 ave       29994 max       29642 min
Histogram: 3 4 1 0 0 0 0 1 2 5
Neighs:              0 ave           0 max           0 min
Histogram: 16 0 0 0 0 0 0 0 0 0
FullNghs:  7.11291e+06 ave 7.12664e+06 max 7.09777e+06 min
Histogram: 3 1 2 2 0 0 0 1 5 2

Total # of neighbors = 1.138066e+08
Ave neighs/atom = 216.01411
Neighbor list builds = 10
Dangerous builds not checked
write_data      final.${ibead}
write_data      final.03
System init for write_data ...
Generated 0 of 1 mixed pair_coeff terms from geometric mixing rule
Total wall time: 0:01:55
