LAMMPS (10 Dec 2025 - Development - patch_24Dec2020-21955-gcf116c2130-modified)
Processor partition = 5
OMP_NUM_THREADS environment is not set. Defaulting to 1 thread.
  using 1 OpenMP thread(s) per MPI task
Loaded 1 plugins from /global/homes/y/yifanl/.conda/envs/dp-pimd-devel/lib/deepmd_lmp
Loaded 1 plugins from /global/homes/y/yifanl/.conda/envs/dp-pimd-devel/lib/deepmd_lmp
clear
OMP_NUM_THREADS environment is not set. Defaulting to 1 thread.
  using 1 OpenMP thread(s) per MPI task
Restoring plugin: deepmd pair style v3.1.1-24-gc346332d by Han Wang
Restoring plugin: deepspin pair style v3.1.1-24-gc346332d by Duo Zhang
Restoring plugin: compute deeptensor/atom v3.1.1-24-gc346332d by Han Wang
Restoring plugin: fix dplr v3.1.1-24-gc346332d by Han Wang
Restoring plugin: kspace pppm/dplr v3.1.1-24-gc346332d by Han Wang
Loaded 1 plugins from /global/homes/y/yifanl/.conda/envs/dp-pimd-devel/lib/deepmd_lmp
Loaded 1 plugins from /global/homes/y/yifanl/.conda/envs/dp-pimd-devel/lib/deepmd_lmp
# --------------------- VARIABLES-------------------------
variable        ibead           uloop 99 pad
variable        NSTEPS          equal 100
variable        THERMO_FREQ     equal 1
#variable        DUMP_FREQ       equal 4000
#variable        NREPEAT         equal ${NSTEPS}/${DUMP_FREQ}
variable        TEMP            equal 300.000000
variable        TAU_T           equal 1.000000
# ---------------------- INITIALIZAITION ------------------
units           metal
boundary        p p p
atom_style      atomic
atom_modify     map yes
# --------------------- ATOM DEFINITION ------------------
read_data       /pscratch/sd/y/yifanl/Work/h2o/pimd/initial_config/conf01
Reading data file ...
  orthogonal box = (0 0 0) to (24.76926 24.76926 24.76926)
  1 by 1 by 2 MPI processor grid
  reading atoms ...
  1536 atoms
  read_data CPU = 0.013 seconds
mass            1 16.000000
mass            2 1.000000
replicate       7 7 7
Replication is creating a 7x7x7 = 343 times larger system...
  orthogonal box = (0 0 0) to (173.38482 173.38482 173.38482)
  1 by 1 by 2 MPI processor grid
  526848 atoms
  replicate CPU = 0.039 seconds
# --------------------- FORCE FIELDS ---------------------
pair_style      deepmd /pscratch/sd/y/yifanl/Work/h2o/pimd/benchmark/graph.pb
Summary of lammps deepmd module ...
  >>> Info of deepmd-kit:
  installed to:       /global/homes/y/yifanl/.conda/envs/dp-pimd-devel
  source:             v3.1.1-24-gc346332d
  source branch:      devel
  source commit:      c346332d
  source commit at:   2025-11-14 11:37:53 +0000
  support model ver.: 1.1 
  build variant:      cuda
  build with tf inc:  /global/homes/y/yifanl/.conda/envs/dp-pimd-devel/lib/python3.12/site-packages/tensorflow/include;/global/homes/y/yifanl/.conda/envs/dp-pimd-devel/include
  build with tf lib:  /global/homes/y/yifanl/.conda/envs/dp-pimd-devel/lib/python3.12/site-packages/tensorflow/libtensorflow_cc.so.2
  set tf intra_op_parallelism_threads: 0
  set tf inter_op_parallelism_threads: 0
  >>> Info of lammps module:
  use deepmd-kit at:  /global/homes/y/yifanl/.conda/envs/dp-pimd-devel
  source:             v3.1.1-24-gc346332d
  source branch:      devel
  source commit:      c346332d
  source commit at:   2025-11-14 11:37:53 +0000
  build with inc:     
  build with lib:     /global/homes/y/yifanl/.conda/envs/dp-pimd-devel/lib/python3.12/site-packages/tensorflow
pair_coeff * *
# --------------------- MD SETTINGS ----------------------
neighbor        2.0 bin
neigh_modify    every 10 delay 0 check no
timestep        0.000500
#dump            1 all custom ${DUMP_FREQ} ${ibead}.xyz id type x y z
#dump_modify     1 sort id
fix 1 all pimd/langevin ensemble nvt integrator obabo temp ${TEMP} thermostat PILE_L 1234 tau ${TAU_T}
fix 1 all pimd/langevin ensemble nvt integrator obabo temp 300 thermostat PILE_L 1234 tau ${TAU_T}
fix 1 all pimd/langevin ensemble nvt integrator obabo temp 300 thermostat PILE_L 1234 tau 1
thermo_style    custom step pe f_1[11]
thermo          ${THERMO_FREQ}
thermo          1
# --------------------- RUN ------------------------------
run             ${NSTEPS}
run             100

CITE-CITE-CITE-CITE-CITE-CITE-CITE-CITE-CITE-CITE-CITE-CITE-CITE

Your simulation uses code contributions which should be cited:

- USER-DEEPMD package:

@article{Wang_ComputPhysCommun_2018_v228_p178,
  author = {Wang, Han and Zhang, Linfeng and Han, Jiequn and E, Weinan},
  doi = {10.1016/j.cpc.2018.03.016},
  url = {https://doi.org/10.1016/j.cpc.2018.03.016},
  year = 2018,
  month = {jul},
  publisher = {Elsevier {BV}},
  volume = 228,
  journal = {Comput. Phys. Commun.},
  title = {{DeePMD-kit: A deep learning package for many-body potential energy representation and molecular dynamics}},
  pages = {178--184}
}
@article{Zeng_JChemPhys_2023_v159_p054801,
  title  = {{DeePMD-kit v2: A software package for deep potential models}},
  author =   {Jinzhe Zeng and Duo Zhang and Denghui Lu and Pinghui Mo and Zeyu Li
         and Yixiao Chen and Mari{\'a}n Rynik and Li'ang Huang and Ziyao Li and 
         Shaochen Shi and Yingze Wang and Haotian Ye and Ping Tuo and Jiabin
         Yang and Ye Ding and Yifan Li and Davide Tisi and Qiyu Zeng and Han 
         Bao and Yu Xia and Jiameng Huang and Koki Muraoka and Yibo Wang and 
         Junhan Chang and Fengbo Yuan and Sigbj{\o}rn L{\o}land Bore and Chun
         Cai and Yinnian Lin and Bo Wang and Jiayan Xu and Jia-Xin Zhu and 
         Chenxing Luo and Yuzhi Zhang and Rhys E A Goodall and Wenshuo Liang
         and Anurag Kumar Singh and Sikai Yao and Jingchao Zhang and Renata
         Wentzcovitch and Jiequn Han and Jie Liu and Weile Jia and Darrin M
         York and Weinan E and Roberto Car and Linfeng Zhang and Han Wang},
  journal =  {J. Chem. Phys.},
  volume =   159,
  issue =    5,  
  year =    2023,
  pages  =   054801,
  doi =      {10.1063/5.0155600},
}
@Article{Zeng_JChemTheoryComput_2025_v21_p4375,
  author =   {Jinzhe Zeng and Duo Zhang and Anyang Peng and Xiangyu Zhang and Sensen
             He and Yan Wang and Xinzijian Liu and Hangrui Bi and Yifan Li and Chun
             Cai and Chengqian Zhang and Yiming Du and Jia-Xin Zhu and Pinghui Mo
             and Zhengtao Huang and Qiyu Zeng and Shaochen Shi and Xuejian Qin and
             Zhaoxi Yu and Chenxing Luo and Ye Ding and Yun-Pei Liu and Ruosong Shi
             and Zhenyu Wang and Sigbj{\o}rn L{\o}land Bore and Junhan Chang and
             Zhe Deng and Zhaohan Ding and Siyuan Han and Wanrun Jiang and Guolin
             Ke and Zhaoqing Liu and Denghui Lu and Koki Muraoka and Hananeh Oliaei
             and Anurag Kumar Singh and Haohui Que and Weihong Xu and Zhangmancang
             Xu and Yong-Bin Zhuang and Jiayu Dai and Timothy J. Giese and Weile
             Jia and Ben Xu and Darrin M. York and Linfeng Zhang and Han Wang},
    title =    {{DeePMD-kit v3: A Multiple-Backend Framework for Machine Learning
             Potentials}},
  journal =  {J. Chem. Theory Comput.},
  year =     2025,
  volume =   21,
  number =   9,
  pages =    {4375--4385},
  doi =      {10.1021/acs.jctc.5c00340},
}

CITE-CITE-CITE-CITE-CITE-CITE-CITE-CITE-CITE-CITE-CITE-CITE-CITE

Generated 0 of 1 mixed pair_coeff terms from geometric mixing rule
Neighbor list info ...
  update: every = 10 steps, delay = 0 steps, check = no
  max neighbors/atom: 2000, page size: 100000
  master list distance cutoff = 8
  ghost atom cutoff = 8
  binsize = 4, bins = 44 44 44
  1 neighbor lists, perpetual/occasional/extra = 1 0 0
  (1) pair deepmd, perpetual
      attributes: full, newton on
      pair build: full/bin/atomonly
      stencil: full/bin/3d
      bin: standard
Per MPI rank memory allocation (min/avg/max) = 279.3 | 279.3 | 279.3 Mbytes
   Step         PotEng        f_1[11]    
         0  -82076698       0            
         1  -82067515       0            
         2  -82060217       0            
         3  -82055045       0            
         4  -82051211       0            
         5  -82048086       0            
         6  -82045371       0            
         7  -82042950       0            
         8  -82041151       0            
         9  -82040179       0            
        10  -82039930       229          
        11  -82040372       229          
        12  -82040904       229          
        13  -82041414       229          
        14  -82041606       229          
        15  -82041398       229          
        16  -82040780       229          
        17  -82039909       229          
        18  -82039279       229          
        19  -82039021       229          
        20  -82039465       251          
        21  -82040389       251          
        22  -82041550       251          
        23  -82042772       251          
        24  -82043516       251          
        25  -82043708       251          
        26  -82043304       251          
        27  -82042804       251          
        28  -82042514       251          
        29  -82042219       251          
        30  -82042235       334          
        31  -82042344       334          
        32  -82042410       334          
        33  -82042254       334          
        34  -82041918       334          
        35  -82041193       334          
        36  -82040447       334          
        37  -82039862       334          
        38  -82039135       334          
        39  -82038912       334          
        40  -82039031       408          
        41  -82039303       408          
        42  -82039787       408          
        43  -82040262       408          
        44  -82040412       408          
        45  -82040392       408          
        46  -82040480       408          
        47  -82040459       408          
        48  -82040639       408          
        49  -82040745       408          
        50  -82040996       418          
        51  -82041198       418          
        52  -82041177       418          
        53  -82041079       418          
        54  -82040783       418          
        55  -82040412       418          
        56  -82040135       418          
        57  -82039911       418          
        58  -82039892       418          
        59  -82039910       418          
        60  -82039983       407          
        61  -82040160       407          
        62  -82040356       407          
        63  -82040625       407          
        64  -82040980       407          
        65  -82041310       407          
        66  -82041521       407          
        67  -82041682       407          
        68  -82042039       407          
        69  -82042073       407          
        70  -82042054       388          
        71  -82041945       388          
        72  -82041867       388          
        73  -82041731       388          
        74  -82041617       388          
        75  -82041291       388          
        76  -82040999       388          
        77  -82040622       388          
        78  -82040558       388          
        79  -82040341       388          
        80  -82040279       340          
        81  -82040237       340          
        82  -82040271       340          
        83  -82040311       340          
        84  -82040411       340          
        85  -82040695       340          
        86  -82040930       340          
        87  -82041284       340          
        88  -82041462       340          
        89  -82041399       340          
        90  -82041370       407          
        91  -82041282       407          
        92  -82041174       407          
        93  -82041083       407          
        94  -82040962       407          
        95  -82040810       407          
        96  -82040720       407          
        97  -82040525       407          
        98  -82040213       407          
        99  -82040054       407          
       100  -82040078       469          
Loop time of 219.247 on 2 procs for 100 steps with 526848 atoms

Performance: 0.020 ns/day, 1218.040 hours/ns, 0.456 timesteps/s, 240.299 katom-step/s
75.8% CPU use with 2 MPI tasks x 1 OpenMP threads

MPI task timing breakdown:
Section |  min time  |  avg time  |  max time  |%varavg| %total
---------------------------------------------------------------
Pair    | 31.784     | 31.797     | 31.81      |   0.2 | 14.50
Neigh   | 26.034     | 26.066     | 26.099     |   0.6 | 11.89
Comm    | 0.82243    | 0.89899    | 0.97554    |   8.1 |  0.41
Output  | 0.0021979  | 0.0027668  | 0.0033357  |   1.1 |  0.00
Modify  | 160.35     | 160.38     | 160.41     |   0.2 | 73.15
Other   |            | 0.1058     |            |       |  0.05

Nlocal:         263424 ave      263443 max      263405 min
Histogram: 1 0 0 0 0 0 0 0 0 1
Nghost:         106898 ave      106914 max      106882 min
Histogram: 1 0 0 0 0 0 0 0 0 1
Neighs:              0 ave           0 max           0 min
Histogram: 2 0 0 0 0 0 0 0 0 0
FullNghs:  5.69029e+07 ave 5.69059e+07 max 5.68998e+07 min
Histogram: 1 0 0 0 0 0 0 0 0 1

Total # of neighbors = 1.1380572e+08
Ave neighs/atom = 216.01243
Neighbor list builds = 10
Dangerous builds not checked
write_data      final.${ibead}
write_data      final.06
System init for write_data ...
Generated 0 of 1 mixed pair_coeff terms from geometric mixing rule
Total wall time: 0:04:01
