LAMMPS (10 Dec 2025 - Development - patch_24Dec2020-21955-gcf116c2130-modified)
Processor partition = 7
OMP_NUM_THREADS environment is not set. Defaulting to 1 thread.
  using 1 OpenMP thread(s) per MPI task
Loaded 1 plugins from /global/homes/y/yifanl/.conda/envs/dp-pimd-devel/lib/deepmd_lmp
Loaded 1 plugins from /global/homes/y/yifanl/.conda/envs/dp-pimd-devel/lib/deepmd_lmp
clear
OMP_NUM_THREADS environment is not set. Defaulting to 1 thread.
  using 1 OpenMP thread(s) per MPI task
Restoring plugin: deepmd pair style v3.1.1-24-gc346332d by Han Wang
Restoring plugin: deepspin pair style v3.1.1-24-gc346332d by Duo Zhang
Restoring plugin: compute deeptensor/atom v3.1.1-24-gc346332d by Han Wang
Restoring plugin: fix dplr v3.1.1-24-gc346332d by Han Wang
Restoring plugin: kspace pppm/dplr v3.1.1-24-gc346332d by Han Wang
Loaded 1 plugins from /global/homes/y/yifanl/.conda/envs/dp-pimd-devel/lib/deepmd_lmp
Loaded 1 plugins from /global/homes/y/yifanl/.conda/envs/dp-pimd-devel/lib/deepmd_lmp
# --------------------- VARIABLES-------------------------
variable        ibead           uloop 99 pad
variable        NSTEPS          equal 100
variable        THERMO_FREQ     equal 1
#variable        DUMP_FREQ       equal 4000
#variable        NREPEAT         equal ${NSTEPS}/${DUMP_FREQ}
variable        TEMP            equal 300.000000
variable        TAU_T           equal 1.000000
# ---------------------- INITIALIZAITION ------------------
units           metal
boundary        p p p
atom_style      atomic
atom_modify     map yes
# --------------------- ATOM DEFINITION ------------------
read_data       /pscratch/sd/y/yifanl/Work/h2o/pimd/initial_config/conf01
Reading data file ...
  orthogonal box = (0 0 0) to (24.76926 24.76926 24.76926)
  1 by 1 by 2 MPI processor grid
  reading atoms ...
  1536 atoms
  read_data CPU = 0.013 seconds
mass            1 16.000000
mass            2 1.000000
replicate       7 7 7
Replication is creating a 7x7x7 = 343 times larger system...
  orthogonal box = (0 0 0) to (173.38482 173.38482 173.38482)
  1 by 1 by 2 MPI processor grid
  526848 atoms
  replicate CPU = 0.041 seconds
# --------------------- FORCE FIELDS ---------------------
pair_style      deepmd /pscratch/sd/y/yifanl/Work/h2o/pimd/benchmark/graph.pb
Summary of lammps deepmd module ...
  >>> Info of deepmd-kit:
  installed to:       /global/homes/y/yifanl/.conda/envs/dp-pimd-devel
  source:             v3.1.1-24-gc346332d
  source branch:      devel
  source commit:      c346332d
  source commit at:   2025-11-14 11:37:53 +0000
  support model ver.: 1.1 
  build variant:      cuda
  build with tf inc:  /global/homes/y/yifanl/.conda/envs/dp-pimd-devel/lib/python3.12/site-packages/tensorflow/include;/global/homes/y/yifanl/.conda/envs/dp-pimd-devel/include
  build with tf lib:  /global/homes/y/yifanl/.conda/envs/dp-pimd-devel/lib/python3.12/site-packages/tensorflow/libtensorflow_cc.so.2
  set tf intra_op_parallelism_threads: 0
  set tf inter_op_parallelism_threads: 0
  >>> Info of lammps module:
  use deepmd-kit at:  /global/homes/y/yifanl/.conda/envs/dp-pimd-devel
  source:             v3.1.1-24-gc346332d
  source branch:      devel
  source commit:      c346332d
  source commit at:   2025-11-14 11:37:53 +0000
  build with inc:     
  build with lib:     /global/homes/y/yifanl/.conda/envs/dp-pimd-devel/lib/python3.12/site-packages/tensorflow
pair_coeff * *
# --------------------- MD SETTINGS ----------------------
neighbor        2.0 bin
neigh_modify    every 10 delay 0 check no
timestep        0.000500
#dump            1 all custom ${DUMP_FREQ} ${ibead}.xyz id type x y z
#dump_modify     1 sort id
fix 1 all pimd/langevin ensemble nvt integrator obabo temp ${TEMP} thermostat PILE_L 1234 tau ${TAU_T}
fix 1 all pimd/langevin ensemble nvt integrator obabo temp 300 thermostat PILE_L 1234 tau ${TAU_T}
fix 1 all pimd/langevin ensemble nvt integrator obabo temp 300 thermostat PILE_L 1234 tau 1
thermo_style    custom step pe f_1[11]
thermo          ${THERMO_FREQ}
thermo          1
# --------------------- RUN ------------------------------
run             ${NSTEPS}
run             100

CITE-CITE-CITE-CITE-CITE-CITE-CITE-CITE-CITE-CITE-CITE-CITE-CITE

Your simulation uses code contributions which should be cited:

- USER-DEEPMD package:

@article{Wang_ComputPhysCommun_2018_v228_p178,
  author = {Wang, Han and Zhang, Linfeng and Han, Jiequn and E, Weinan},
  doi = {10.1016/j.cpc.2018.03.016},
  url = {https://doi.org/10.1016/j.cpc.2018.03.016},
  year = 2018,
  month = {jul},
  publisher = {Elsevier {BV}},
  volume = 228,
  journal = {Comput. Phys. Commun.},
  title = {{DeePMD-kit: A deep learning package for many-body potential energy representation and molecular dynamics}},
  pages = {178--184}
}
@article{Zeng_JChemPhys_2023_v159_p054801,
  title  = {{DeePMD-kit v2: A software package for deep potential models}},
  author =   {Jinzhe Zeng and Duo Zhang and Denghui Lu and Pinghui Mo and Zeyu Li
         and Yixiao Chen and Mari{\'a}n Rynik and Li'ang Huang and Ziyao Li and 
         Shaochen Shi and Yingze Wang and Haotian Ye and Ping Tuo and Jiabin
         Yang and Ye Ding and Yifan Li and Davide Tisi and Qiyu Zeng and Han 
         Bao and Yu Xia and Jiameng Huang and Koki Muraoka and Yibo Wang and 
         Junhan Chang and Fengbo Yuan and Sigbj{\o}rn L{\o}land Bore and Chun
         Cai and Yinnian Lin and Bo Wang and Jiayan Xu and Jia-Xin Zhu and 
         Chenxing Luo and Yuzhi Zhang and Rhys E A Goodall and Wenshuo Liang
         and Anurag Kumar Singh and Sikai Yao and Jingchao Zhang and Renata
         Wentzcovitch and Jiequn Han and Jie Liu and Weile Jia and Darrin M
         York and Weinan E and Roberto Car and Linfeng Zhang and Han Wang},
  journal =  {J. Chem. Phys.},
  volume =   159,
  issue =    5,  
  year =    2023,
  pages  =   054801,
  doi =      {10.1063/5.0155600},
}
@Article{Zeng_JChemTheoryComput_2025_v21_p4375,
  author =   {Jinzhe Zeng and Duo Zhang and Anyang Peng and Xiangyu Zhang and Sensen
             He and Yan Wang and Xinzijian Liu and Hangrui Bi and Yifan Li and Chun
             Cai and Chengqian Zhang and Yiming Du and Jia-Xin Zhu and Pinghui Mo
             and Zhengtao Huang and Qiyu Zeng and Shaochen Shi and Xuejian Qin and
             Zhaoxi Yu and Chenxing Luo and Ye Ding and Yun-Pei Liu and Ruosong Shi
             and Zhenyu Wang and Sigbj{\o}rn L{\o}land Bore and Junhan Chang and
             Zhe Deng and Zhaohan Ding and Siyuan Han and Wanrun Jiang and Guolin
             Ke and Zhaoqing Liu and Denghui Lu and Koki Muraoka and Hananeh Oliaei
             and Anurag Kumar Singh and Haohui Que and Weihong Xu and Zhangmancang
             Xu and Yong-Bin Zhuang and Jiayu Dai and Timothy J. Giese and Weile
             Jia and Ben Xu and Darrin M. York and Linfeng Zhang and Han Wang},
    title =    {{DeePMD-kit v3: A Multiple-Backend Framework for Machine Learning
             Potentials}},
  journal =  {J. Chem. Theory Comput.},
  year =     2025,
  volume =   21,
  number =   9,
  pages =    {4375--4385},
  doi =      {10.1021/acs.jctc.5c00340},
}

CITE-CITE-CITE-CITE-CITE-CITE-CITE-CITE-CITE-CITE-CITE-CITE-CITE

Generated 0 of 1 mixed pair_coeff terms from geometric mixing rule
Neighbor list info ...
  update: every = 10 steps, delay = 0 steps, check = no
  max neighbors/atom: 2000, page size: 100000
  master list distance cutoff = 8
  ghost atom cutoff = 8
  binsize = 4, bins = 44 44 44
  1 neighbor lists, perpetual/occasional/extra = 1 0 0
  (1) pair deepmd, perpetual
      attributes: full, newton on
      pair build: full/bin/atomonly
      stencil: full/bin/3d
      bin: standard
Per MPI rank memory allocation (min/avg/max) = 279.3 | 279.3 | 279.3 Mbytes
   Step         PotEng        f_1[11]    
         0  -82076698       0            
         1  -82067533       0            
         2  -82060166       0            
         3  -82054983       0            
         4  -82051015       0            
         5  -82047926       0            
         6  -82045229       0            
         7  -82042975       0            
         8  -82041304       0            
         9  -82040294       0            
        10  -82040063       223          
        11  -82040251       223          
        12  -82040848       223          
        13  -82041405       223          
        14  -82041680       223          
        15  -82041502       223          
        16  -82040718       223          
        17  -82039894       223          
        18  -82039202       223          
        19  -82039106       223          
        20  -82039441       262          
        21  -82040323       262          
        22  -82041512       262          
        23  -82042681       262          
        24  -82043404       262          
        25  -82043608       262          
        26  -82043458       262          
        27  -82042876       262          
        28  -82042366       262          
        29  -82042295       262          
        30  -82042285       329          
        31  -82042304       329          
        32  -82042379       329          
        33  -82042319       329          
        34  -82041921       329          
        35  -82041265       329          
        36  -82040476       329          
        37  -82039703       329          
        38  -82039206       329          
        39  -82038999       329          
        40  -82039023       408          
        41  -82039493       408          
        42  -82039818       408          
        43  -82040134       408          
        44  -82040411       408          
        45  -82040481       408          
        46  -82040597       408          
        47  -82040614       408          
        48  -82040636       408          
        49  -82040772       408          
        50  -82040993       442          
        51  -82041203       442          
        52  -82041222       442          
        53  -82041002       442          
        54  -82040828       442          
        55  -82040545       442          
        56  -82040085       442          
        57  -82039930       442          
        58  -82039812       442          
        59  -82039834       442          
        60  -82040030       398          
        61  -82040170       398          
        62  -82040408       398          
        63  -82040612       398          
        64  -82040841       398          
        65  -82041100       398          
        66  -82041176       398          
        67  -82041519       398          
        68  -82041790       398          
        69  -82041802       398          
        70  -82041958       391          
        71  -82041828       391          
        72  -82041759       391          
        73  -82041724       391          
        74  -82041534       391          
        75  -82041211       391          
        76  -82040937       391          
        77  -82040681       391          
        78  -82040483       391          
        79  -82040276       391          
        80  -82040021       324          
        81  -82040184       324          
        82  -82040053       324          
        83  -82040246       324          
        84  -82040494       324          
        85  -82040594       324          
        86  -82040895       324          
        87  -82041126       324          
        88  -82041277       324          
        89  -82041410       324          
        90  -82041411       404          
        91  -82041293       404          
        92  -82041101       404          
        93  -82041097       404          
        94  -82041001       404          
        95  -82040983       404          
        96  -82040675       404          
        97  -82040487       404          
        98  -82040305       404          
        99  -82040234       404          
       100  -82040067       466          
Loop time of 219.247 on 2 procs for 100 steps with 526848 atoms

Performance: 0.020 ns/day, 1218.038 hours/ns, 0.456 timesteps/s, 240.299 katom-step/s
76.0% CPU use with 2 MPI tasks x 1 OpenMP threads

MPI task timing breakdown:
Section |  min time  |  avg time  |  max time  |%varavg| %total
---------------------------------------------------------------
Pair    | 31.777     | 31.785     | 31.793     |   0.1 | 14.50
Neigh   | 25.983     | 26.045     | 26.107     |   1.2 | 11.88
Comm    | 0.82475    | 0.90507    | 0.9854     |   8.4 |  0.41
Output  | 0.0021863  | 0.0027568  | 0.0033273  |   1.1 |  0.00
Modify  | 160.41     | 160.41     | 160.42     |   0.0 | 73.17
Other   |            | 0.09455    |            |       |  0.04

Nlocal:         263424 ave      263435 max      263413 min
Histogram: 1 0 0 0 0 0 0 0 0 1
Nghost:         106874 ave      106887 max      106860 min
Histogram: 1 0 0 0 0 0 0 0 0 1
Neighs:              0 ave           0 max           0 min
Histogram: 2 0 0 0 0 0 0 0 0 0
FullNghs:  5.69041e+07 ave  5.6908e+07 max 5.69001e+07 min
Histogram: 1 0 0 0 0 0 0 0 0 1

Total # of neighbors = 1.1380811e+08
Ave neighs/atom = 216.01697
Neighbor list builds = 10
Dangerous builds not checked
write_data      final.${ibead}
write_data      final.08
System init for write_data ...
Generated 0 of 1 mixed pair_coeff terms from geometric mixing rule
Total wall time: 0:04:01
