LAMMPS (2 Aug 2023)
Processor partition = 5
OMP_NUM_THREADS environment is not set. Defaulting to 1 thread. (src/comm.cpp:98)
  using 1 OpenMP thread(s) per MPI task
Loaded 1 plugins from /opt/deepmd-kit/lib/deepmd_lmp
clear
OMP_NUM_THREADS environment is not set. Defaulting to 1 thread. (src/comm.cpp:98)
  using 1 OpenMP thread(s) per MPI task
Loaded 1 plugins from /opt/deepmd-kit/lib/deepmd_lmp
# --------------------- VARIABLES-------------------------
variable        ibead           uloop 99 pad
variable        NSTEPS          equal 1000
variable        THERMO_FREQ     equal 1
#variable        DUMP_FREQ       equal 4000
#variable        NREPEAT         equal ${NSTEPS}/${DUMP_FREQ}
variable        TEMP            equal 300.000000
variable        TAU_T           equal 1.000000
# ---------------------- INITIALIZAITION ------------------
units           metal
boundary        p p p
atom_style      atomic
atom_modify     map yes
# --------------------- ATOM DEFINITION ------------------
read_data       /pscratch/sd/y/yifanl/Work/h2o/pimd/initial_config/conf01
Reading data file ...
  orthogonal box = (0 0 0) to (24.76926 24.76926 24.76926)
  1 by 1 by 1 MPI processor grid
  reading atoms ...
  1536 atoms
  read_data CPU = 0.004 seconds
mass            1 16.000000
mass            2 1.000000
replicate       7 7 7
Replication is creating a 7x7x7 = 343 times larger system...
  orthogonal box = (0 0 0) to (173.38482 173.38482 173.38482)
  1 by 1 by 1 MPI processor grid
  526848 atoms
  replicate CPU = 0.026 seconds
# --------------------- FORCE FIELDS ---------------------
pair_style      deepmd /pscratch/sd/y/yifanl/Work/h2o/pimd/benchmark/graph.pb
Summary of lammps deepmd module ...
  >>> Info of deepmd-kit:
  installed to:       /opt/deepmd-kit
  source:             
  source branch:      HEAD
  source commit:      5ec5eae
  source commit at:   2024-02-04 18:53:26 -0500
  support model ver.: 1.1 
  build variant:      cuda
  build with tf inc:  /opt/deepmd-kit/lib/python3.11/site-packages/tensorflow/include;/opt/deepmd-kit/include
  build with tf lib:  /opt/deepmd-kit/lib/python3.11/site-packages/tensorflow/libtensorflow_cc.so.2
  set tf intra_op_parallelism_threads: 0
  set tf inter_op_parallelism_threads: 0
  >>> Info of lammps module:
  use deepmd-kit at:  /opt/deepmd-kitpair_coeff * *
# --------------------- MD SETTINGS ----------------------
neighbor        2.0 bin
neigh_modify    every 10 delay 0 check no
timestep        0.000500
thermo          ${THERMO_FREQ}
thermo          1
thermo_style    custom step pe
#dump            1 all custom ${DUMP_FREQ} ${ibead}.xyz id type x y z
#dump_modify     1 sort id
fix 1 all pimd/langevin ensemble nvt integrator obabo temp ${TEMP} thermostat PILE_L 1234 tau ${TAU_T}
fix 1 all pimd/langevin ensemble nvt integrator obabo temp 300 thermostat PILE_L 1234 tau ${TAU_T}
fix 1 all pimd/langevin ensemble nvt integrator obabo temp 300 thermostat PILE_L 1234 tau 1
# --------------------- RUN ------------------------------
run             ${NSTEPS}
run             1000

CITE-CITE-CITE-CITE-CITE-CITE-CITE-CITE-CITE-CITE-CITE-CITE-CITE

Your simulation uses code contributions which should be cited:

- USER-DEEPMD package:

@article{Wang_ComputPhysCommun_2018_v228_p178,
  author = {Wang, Han and Zhang, Linfeng and Han, Jiequn and E, Weinan},
  doi = {10.1016/j.cpc.2018.03.016},
  url = {https://doi.org/10.1016/j.cpc.2018.03.016},
  year = 2018,
  month = {jul},
  publisher = {Elsevier {BV}},
  volume = 228,
  journal = {Comput. Phys. Commun.},
  title = {{DeePMD-kit: A deep learning package for many-body potential energy representation and molecular dynamics}},
  pages = {178--184}
}
@misc{Zeng_JChemPhys_2023_v159_p054801,
  title  = {{DeePMD-kit v2: A software package for deep potential models}},
  author =   {Jinzhe Zeng and Duo Zhang and Denghui Lu and Pinghui Mo and Zeyu Li
         and Yixiao Chen and Mari{\'a}n Rynik and Li'ang Huang and Ziyao Li and 
         Shaochen Shi and Yingze Wang and Haotian Ye and Ping Tuo and Jiabin
         Yang and Ye Ding and Yifan Li and Davide Tisi and Qiyu Zeng and Han 
         Bao and Yu Xia and Jiameng Huang and Koki Muraoka and Yibo Wang and 
         Junhan Chang and Fengbo Yuan and Sigbj{\o}rn L{\o}land Bore and Chun
         Cai and Yinnian Lin and Bo Wang and Jiayan Xu and Jia-Xin Zhu and 
         Chenxing Luo and Yuzhi Zhang and Rhys E A Goodall and Wenshuo Liang
         and Anurag Kumar Singh and Sikai Yao and Jingchao Zhang and Renata
         Wentzcovitch and Jiequn Han and Jie Liu and Weile Jia and Darrin M
         York and Weinan E and Roberto Car and Linfeng Zhang and Han Wang},
  journal =  {J. Chem. Phys.},
  volume =   159,
  issue =    5,  
  year =    2023,
  pages  =   054801,
  doi =      {10.1063/5.0155600},
}

CITE-CITE-CITE-CITE-CITE-CITE-CITE-CITE-CITE-CITE-CITE-CITE-CITE

Generated 0 of 1 mixed pair_coeff terms from geometric mixing rule

Initializing PI Langevin equation thermostat...
Bead ID    |    omega    |    tau    |    c1    |    c2
    0     0.00000000e+00 1.00000000e+00 9.99750031e-01 2.23578850e-02
    1     2.46383091e+02 2.02936004e-03 8.84094302e-01 4.67308533e-01
    2     4.90393378e+02 1.01958962e-03 7.82550604e-01 6.22586984e-01
    3     7.29680909e+02 6.85231028e-04 6.94307415e-01 7.19678548e-01
    4     9.61941214e+02 5.19782282e-04 6.18183088e-01 7.86034141e-01
    5     1.18493750e+03 4.21963184e-04 5.52960477e-01 8.33207484e-01
    6     1.39652219e+03 3.58032263e-04 4.97449570e-01 8.67492896e-01
    7     1.59465761e+03 3.13546932e-04 4.50530815e-01 8.92760878e-01
    8     1.77743560e+03 2.81304144e-04 4.11182633e-01 9.11552984e-01
    9     1.94309592e+03 2.57321317e-04 3.78496688e-01 9.25602646e-01
    10     2.09004316e+03 2.39229510e-04 3.51684231e-01 9.36118690e-01
    11     2.21686214e+03 2.25544021e-04 3.30076422e-01 9.43954213e-01
    12     2.32233153e+03 2.15300871e-04 3.13120943e-01 9.49713259e-01
    13     2.40543559e+03 2.07862560e-04 3.00376739e-01 9.53820641e-01
    14     2.46537400e+03 2.02808986e-04 2.91508242e-01 9.56568317e-01
    15     2.50156951e+03 1.99874518e-04 2.86280050e-01 9.58145987e-01
    16     2.51367353e+03 1.98912068e-04 2.84552711e-01 9.58660396e-01
    17     2.50156951e+03 1.99874518e-04 2.86280050e-01 9.58145987e-01
    18     2.46537400e+03 2.02808986e-04 2.91508242e-01 9.56568317e-01
    19     2.40543559e+03 2.07862560e-04 3.00376739e-01 9.53820641e-01
    20     2.32233153e+03 2.15300871e-04 3.13120943e-01 9.49713259e-01
    21     2.21686214e+03 2.25544021e-04 3.30076422e-01 9.43954213e-01
    22     2.09004316e+03 2.39229510e-04 3.51684231e-01 9.36118690e-01
    23     1.94309592e+03 2.57321317e-04 3.78496688e-01 9.25602646e-01
    24     1.77743560e+03 2.81304144e-04 4.11182633e-01 9.11552984e-01
    25     1.59465761e+03 3.13546932e-04 4.50530815e-01 8.92760878e-01
    26     1.39652219e+03 3.58032263e-04 4.97449570e-01 8.67492896e-01
    27     1.18493750e+03 4.21963184e-04 5.52960477e-01 8.33207484e-01
    28     9.61941214e+02 5.19782282e-04 6.18183088e-01 7.86034141e-01
    29     7.29680909e+02 6.85231028e-04 6.94307415e-01 7.19678548e-01
    30     4.90393378e+02 1.01958962e-03 7.82550604e-01 6.22586984e-01
    31     2.46383091e+02 2.02936004e-03 8.84094302e-01 4.67308533e-01
PILE_L thermostat successfully initialized!

Neighbor list info ...
  update: every = 10 steps, delay = 0 steps, check = no
  max neighbors/atom: 2000, page size: 100000
  master list distance cutoff = 8
  ghost atom cutoff = 8
  binsize = 4, bins = 44 44 44
  1 neighbor lists, perpetual/occasional/extra = 1 0 0
  (1) pair deepmd, perpetual
      attributes: full, newton on
      pair build: full/bin/atomonly
      stencil: full/bin/3d
      bin: standard
Per MPI rank memory allocation (min/avg/max) = 542.7 | 542.7 | 542.7 Mbytes
   Step         PotEng    
         0  -82076698     
         1  -82067404     
         2  -82060114     
         3  -82054881     
         4  -82051063     
         5  -82047838     
         6  -82045225     
         7  -82042965     
         8  -82041159     
         9  -82040248     
        10  -82039949     
        11  -82040361     
        12  -82041094     
        13  -82041634     
        14  -82041667     
        15  -82041262     
        16  -82040526     
        17  -82039762     
        18  -82039258     
        19  -82038970     
        20  -82039228     
        21  -82040205     
        22  -82041389     
        23  -82042590     
        24  -82043281     
        25  -82043607     
        26  -82043377     
        27  -82042854     
        28  -82042401     
        29  -82042139     
        30  -82042164     
        31  -82042396     
        32  -82042516     
        33  -82042350     
        34  -82041916     
        35  -82041232     
        36  -82040493     
        37  -82039790     
        38  -82039284     
        39  -82038992     
        40  -82039005     
        41  -82039317     
        42  -82039735     
        43  -82040228     
        44  -82040477     
        45  -82040486     
        46  -82040558     
        47  -82040677     
        48  -82040774     
        49  -82040855     
        50  -82040995     
        51  -82041283     
        52  -82041095     
        53  -82040980     
        54  -82040593     
        55  -82040363     
        56  -82040126     
        57  -82039784     
        58  -82039732     
        59  -82039867     
        60  -82040117     
        61  -82040293     
        62  -82040520     
        63  -82040711     
        64  -82040944     
        65  -82041132     
        66  -82041334     
        67  -82041628     
        68  -82041871     
        69  -82041939     
        70  -82042025     
        71  -82041986     
        72  -82041963     
        73  -82041798     
        74  -82041555     
        75  -82041261     
        76  -82041010     
        77  -82040653     
        78  -82040388     
        79  -82040240     
        80  -82040187     
        81  -82040091     
        82  -82040036     
        83  -82040232     
        84  -82040526     
        85  -82040819     
        86  -82040857     
        87  -82041111     
        88  -82041321     
        89  -82041409     
        90  -82041418     
        91  -82041314     
        92  -82041170     
        93  -82041160     
        94  -82040928     
        95  -82040848     
        96  -82040782     
        97  -82040558     
        98  -82040324     
        99  -82039999     
       100  -82039932     
       101  -82039787     
       102  -82039799     
       103  -82040006     
       104  -82040095     
       105  -82040258     
       106  -82040351     
       107  -82040547     
       108  -82040814     
       109  -82040990     
       110  -82040991     
       111  -82041103     
       112  -82041063     
       113  -82040929     
       114  -82040950     
       115  -82040795     
       116  -82040619     
       117  -82040349     
       118  -82040149     
       119  -82040051     
       120  -82039808     
       121  -82039939     
       122  -82039958     
       123  -82039956     
       124  -82039990     
       125  -82040147     
       126  -82040199     
       127  -82040412     
       128  -82040401     
       129  -82040589     
       130  -82040624     
       131  -82040731     
       132  -82040800     
       133  -82040805     
       134  -82040727     
       135  -82040651     
       136  -82040585     
       137  -82040500     
       138  -82040272     
       139  -82040225     
       140  -82040217     
       141  -82040213     
       142  -82040055     
       143  -82040130     
       144  -82039989     
       145  -82040128     
       146  -82040080     
       147  -82040340     
       148  -82040598     
       149  -82040526     
       150  -82040799     
       151  -82040835     
       152  -82041008     
       153  -82041133     
       154  -82041004     
       155  -82040986     
       156  -82040978     
       157  -82040875     
       158  -82040752     
       159  -82040620     
       160  -82040466     
       161  -82040444     
       162  -82040346     
       163  -82040253     
       164  -82040393     
       165  -82040329     
       166  -82040257     
       167  -82040263     
       168  -82040326     
       169  -82040404     
       170  -82040353     
       171  -82040505     
       172  -82040571     
       173  -82040551     
       174  -82040664     
       175  -82040529     
       176  -82040381     
       177  -82040237     
       178  -82040091     
       179  -82040045     
       180  -82040029     
       181  -82039952     
       182  -82040023     
       183  -82039876     
       184  -82039741     
       185  -82039825     
       186  -82040027     
       187  -82040062     
       188  -82040011     
       189  -82040097     
       190  -82040043     
       191  -82040083     
       192  -82040123     
       193  -82040207     
       194  -82040293     
       195  -82040223     
       196  -82040145     
       197  -82040056     
       198  -82039875     
       199  -82039759     
       200  -82039853     
       201  -82039829     
       202  -82039814     
       203  -82039799     
       204  -82039687     
       205  -82039705     
       206  -82039682     
       207  -82039653     
       208  -82039673     
       209  -82039665     
       210  -82039673     
       211  -82039687     
       212  -82039685     
       213  -82039895     
       214  -82039777     
       215  -82039719     
       216  -82039769     
       217  -82039827     
       218  -82039825     
       219  -82039852     
       220  -82039580     
       221  -82039531     
       222  -82039550     
       223  -82039613     
       224  -82039544     
       225  -82039505     
       226  -82039421     
       227  -82039367     
       228  -82039579     
       229  -82039600     
       230  -82039721     
       231  -82039753     
       232  -82039822     
       233  -82039698     
       234  -82039752     
       235  -82039731     
       236  -82039748     
       237  -82039654     
       238  -82039745     
       239  -82039763     
       240  -82039778     
       241  -82039695     
       242  -82039694     
       243  -82039653     
       244  -82039629     
       245  -82039737     
       246  -82039658     
       247  -82039583     
       248  -82039594     
       249  -82039656     
       250  -82039652     
       251  -82039598     
       252  -82039671     
       253  -82039709     
       254  -82039630     
       255  -82039601     
       256  -82039541     
       257  -82039605     
       258  -82039652     
       259  -82039584     
       260  -82039723     
       261  -82039924     
       262  -82039807     
       263  -82039876     
       264  -82039880     
       265  -82039806     
       266  -82039621     
       267  -82039524     
       268  -82039449     
       269  -82039413     
       270  -82039315     
       271  -82039356     
       272  -82039318     
       273  -82039502     
       274  -82039528     
       275  -82039523     
       276  -82039616     
       277  -82039709     
       278  -82039645     
       279  -82039586     
       280  -82039393     
       281  -82039485     
       282  -82039478     
       283  -82039476     
       284  -82039658     
       285  -82039773     
       286  -82039704     
       287  -82039440     
       288  -82039465     
       289  -82039497     
       290  -82039570     
       291  -82039466     
       292  -82039330     
       293  -82039372     
       294  -82039327     
       295  -82039289     
       296  -82039371     
       297  -82039503     
       298  -82039432     
       299  -82039528     
       300  -82039394     
       301  -82039363     
       302  -82039319     
       303  -82039379     
       304  -82039277     
       305  -82039370     
       306  -82039531     
       307  -82039470     
       308  -82039320     
       309  -82039404     
       310  -82039385     
       311  -82039335     
       312  -82039280     
       313  -82039307     
       314  -82039451     
       315  -82039313     
       316  -82039264     
       317  -82039360     
       318  -82039335     
       319  -82039412     
       320  -82039380     
       321  -82039364     
       322  -82039369     
       323  -82039307     
       324  -82039469     
       325  -82039445     
       326  -82039314     
       327  -82039180     
       328  -82039201     
       329  -82039255     
       330  -82039142     
       331  -82039186     
       332  -82039150     
       333  -82039164     
       334  -82039151     
       335  -82039146     
       336  -82039110     
       337  -82039173     
       338  -82039236     
       339  -82039171     
       340  -82039073     
       341  -82039064     
       342  -82038972     
       343  -82039028     
       344  -82039054     
       345  -82038949     
       346  -82039013     
       347  -82039104     
       348  -82039031     
       349  -82039118     
       350  -82039091     
       351  -82039029     
       352  -82038985     
       353  -82039158     
       354  -82039156     
       355  -82039074     
       356  -82039098     
       357  -82039047     
       358  -82039026     
       359  -82038921     
       360  -82039029     
       361  -82038977     
       362  -82038936     
       363  -82038895     
       364  -82038863     
       365  -82038880     
       366  -82039053     
       367  -82039153     
       368  -82039143     
       369  -82039114     
       370  -82039006     
       371  -82039017     
       372  -82039055     
       373  -82038974     
       374  -82039092     
       375  -82039128     
       376  -82039126     
       377  -82039121     
       378  -82038980     
       379  -82038937     
       380  -82038903     
       381  -82038891     
       382  -82038770     
       383  -82038708     
       384  -82038844     
       385  -82038870     
       386  -82038825     
       387  -82038831     
       388  -82038885     
       389  -82038908     
       390  -82038684     
       391  -82038693     
       392  -82038813     
       393  -82038839     
       394  -82038830     
       395  -82038798     
       396  -82038756     
       397  -82038691     
       398  -82038709     
       399  -82038637     
       400  -82038752     
       401  -82038827     
       402  -82038847     
       403  -82038937     
       404  -82038957     
       405  -82039008     
       406  -82039069     
       407  -82039043     
       408  -82038950     
       409  -82038991     
       410  -82038972     
       411  -82038900     
       412  -82038856     
       413  -82038835     
       414  -82038840     
       415  -82038890     
       416  -82038897     
       417  -82038792     
       418  -82038899     
       419  -82038796     
       420  -82038725     
       421  -82038619     
       422  -82038603     
       423  -82038756     
       424  -82038817     
       425  -82038783     
       426  -82038733     
       427  -82038846     
       428  -82038946     
       429  -82038962     
       430  -82038907     
       431  -82038962     
       432  -82038883     
       433  -82038884     
       434  -82038749     
       435  -82038884     
       436  -82038802     
       437  -82038969     
       438  -82038952     
       439  -82038918     
       440  -82038915     
       441  -82038887     
       442  -82038944     
       443  -82038909     
       444  -82038896     
       445  -82038884     
       446  -82039001     
       447  -82038937     
       448  -82038949     
       449  -82039028     
       450  -82038859     
       451  -82038820     
       452  -82038894     
       453  -82038880     
       454  -82038833     
       455  -82038936     
       456  -82038931     
       457  -82039024     
       458  -82038855     
       459  -82038867     
       460  -82038668     
       461  -82038630     
       462  -82038804     
       463  -82038835     
       464  -82038790     
       465  -82038838     
       466  -82038826     
       467  -82038911     
       468  -82038767     
       469  -82038972     
       470  -82038822     
       471  -82038748     
       472  -82038893     
       473  -82038949     
       474  -82038840     
       475  -82038831     
       476  -82038847     
       477  -82038896     
       478  -82038942     
       479  -82039020     
       480  -82038950     
       481  -82038904     
       482  -82038929     
       483  -82038884     
       484  -82038714     
       485  -82038792     
       486  -82038635     
       487  -82038788     
       488  -82038731     
       489  -82038794     
       490  -82038860     
       491  -82038758     
       492  -82038877     
       493  -82038797     
       494  -82038844     
       495  -82038972     
       496  -82038958     
       497  -82038948     
       498  -82038816     
       499  -82038883     
       500  -82038935     
       501  -82038869     
       502  -82038857     
       503  -82038895     
       504  -82038916     
       505  -82038833     
       506  -82038834     
       507  -82038832     
       508  -82038900     
       509  -82038820     
       510  -82038754     
       511  -82038743     
       512  -82038736     
       513  -82038776     
       514  -82038731     
       515  -82038780     
       516  -82038786     
       517  -82038687     
       518  -82038662     
       519  -82038805     
       520  -82038729     
       521  -82038740     
       522  -82038783     
       523  -82038773     
       524  -82038815     
       525  -82038940     
       526  -82038913     
       527  -82038856     
       528  -82038781     
       529  -82038825     
       530  -82038732     
       531  -82038785     
       532  -82038716     
       533  -82038572     
       534  -82038727     
       535  -82038876     
       536  -82038822     
       537  -82038891     
       538  -82038862     
       539  -82038786     
       540  -82038769     
       541  -82038743     
       542  -82038801     
       543  -82038798     
       544  -82038818     
       545  -82038765     
       546  -82038753     
       547  -82038702     
       548  -82038706     
       549  -82038797     
       550  -82038707     
       551  -82038762     
       552  -82038843     
       553  -82038788     
       554  -82038725     
       555  -82038713     
       556  -82038686     
       557  -82038741     
       558  -82038792     
       559  -82038674     
       560  -82038857     
       561  -82038879     
       562  -82038951     
       563  -82038947     
       564  -82038806     
       565  -82038851     
       566  -82038812     
       567  -82038737     
       568  -82038680     
       569  -82038864     
       570  -82038990     
       571  -82038900     
       572  -82038911     
       573  -82038926     
       574  -82038863     
       575  -82038762     
       576  -82038887     
       577  -82038914     
       578  -82038918     
       579  -82038839     
       580  -82038905     
       581  -82038845     
       582  -82038873     
       583  -82038723     
       584  -82038765     
       585  -82038734     
       586  -82038751     
       587  -82038772     
       588  -82038729     
       589  -82038779     
       590  -82038844     
       591  -82038892     
       592  -82038696     
       593  -82038744     
       594  -82038704     
       595  -82038579     
       596  -82038673     
       597  -82038639     
       598  -82038360     
       599  -82038351     
       600  -82038518     
       601  -82038700     
       602  -82038873     
       603  -82038915     
       604  -82038896     
       605  -82038932     
       606  -82038850     
       607  -82038799     
       608  -82038729     
       609  -82038886     
       610  -82038756     
       611  -82038629     
       612  -82038564     
       613  -82038661     
       614  -82038680     
       615  -82038648     
       616  -82038593     
       617  -82038601     
       618  -82038718     
       619  -82038636     
       620  -82038618     
       621  -82038785     
       622  -82038924     
       623  -82038745     
       624  -82038670     
       625  -82038653     
       626  -82038644     
       627  -82038566     
       628  -82038453     
       629  -82038476     
       630  -82038418     
       631  -82038385     
       632  -82038354     
       633  -82038402     
       634  -82038495     
       635  -82038535     
       636  -82038473     
       637  -82038486     
       638  -82038598     
       639  -82038605     
       640  -82038577     
       641  -82038572     
       642  -82038479     
       643  -82038541     
       644  -82038550     
       645  -82038393     
       646  -82038335     
       647  -82038457     
       648  -82038380     
       649  -82038504     
       650  -82038611     
       651  -82038624     
       652  -82038630     
       653  -82038521     
       654  -82038506     
       655  -82038245     
       656  -82038171     
       657  -82038334     
       658  -82038370     
       659  -82038433     
       660  -82038497     
       661  -82038486     
       662  -82038441     
       663  -82038467     
       664  -82038496     
       665  -82038395     
       666  -82038390     
       667  -82038158     
       668  -82038277     
       669  -82038289     
       670  -82038281     
       671  -82038320     
       672  -82038246     
       673  -82038304     
       674  -82038147     
       675  -82038124     
       676  -82038240     
       677  -82038439     
       678  -82038466     
       679  -82038448     
       680  -82038386     
       681  -82038286     
       682  -82038198     
       683  -82038131     
       684  -82038158     
       685  -82038190     
       686  -82038174     
       687  -82038248     
       688  -82038296     
       689  -82038285     
       690  -82038097     
       691  -82038191     
       692  -82038092     
       693  -82038091     
       694  -82038197     
       695  -82038366     
       696  -82038295     
       697  -82038288     
       698  -82038308     
       699  -82038174     
       700  -82038148     
       701  -82038145     
       702  -82038197     
       703  -82038254     
       704  -82038237     
       705  -82038308     
       706  -82038276     
       707  -82038231     
       708  -82038260     
       709  -82038141     
       710  -82038256     
       711  -82038298     
       712  -82038304     
       713  -82038097     
       714  -82038065     
       715  -82038232     
       716  -82038202     
       717  -82038160     
       718  -82038058     
       719  -82037987     
       720  -82037976     
       721  -82037998     
       722  -82038132     
       723  -82038145     
       724  -82038114     
       725  -82038089     
       726  -82038145     
       727  -82038063     
       728  -82038135     
       729  -82038056     
       730  -82037982     
       731  -82038081     
       732  -82037961     
       733  -82038051     
       734  -82038180     
       735  -82038136     
       736  -82038066     
       737  -82038015     
       738  -82038087     
       739  -82038001     
       740  -82038113     
       741  -82038046     
       742  -82037944     
       743  -82037863     
       744  -82037880     
       745  -82037792     
       746  -82037829     
       747  -82037944     
       748  -82037915     
       749  -82038028     
       750  -82037976     
       751  -82037901     
       752  -82037791     
       753  -82037920     
       754  -82038033     
       755  -82038000     
       756  -82037916     
       757  -82037887     
       758  -82037957     
       759  -82037987     
       760  -82037997     
       761  -82038058     
       762  -82038191     
       763  -82038250     
       764  -82038079     
       765  -82038032     
       766  -82037996     
       767  -82038098     
       768  -82038016     
       769  -82038094     
       770  -82038169     
       771  -82038105     
       772  -82038130     
       773  -82038057     
       774  -82038006     
       775  -82037845     
       776  -82037802     
       777  -82037999     
       778  -82037994     
       779  -82037933     
       780  -82038054     
       781  -82038029     
       782  -82037950     
       783  -82037900     
       784  -82037918     
       785  -82037841     
       786  -82038030     
       787  -82038021     
       788  -82038057     
       789  -82037941     
       790  -82037899     
       791  -82038022     
       792  -82038060     
       793  -82037927     
       794  -82037923     
       795  -82038046     
       796  -82037943     
       797  -82037903     
       798  -82037960     
       799  -82037871     
       800  -82037838     
       801  -82037788     
       802  -82037866     
       803  -82037831     
       804  -82037763     
       805  -82037959     
       806  -82037960     
       807  -82037977     
       808  -82038066     
       809  -82038000     
       810  -82038067     
       811  -82037875     
       812  -82037893     
       813  -82037904     
       814  -82037933     
       815  -82037905     
       816  -82037918     
       817  -82037930     
       818  -82037845     
       819  -82037919     
       820  -82037896     
       821  -82037891     
       822  -82037958     
       823  -82037999     
       824  -82038007     
       825  -82037918     
       826  -82037902     
       827  -82037907     
       828  -82037912     
       829  -82037888     
       830  -82037893     
       831  -82037942     
       832  -82037860     
       833  -82037993     
       834  -82037876     
       835  -82037903     
       836  -82037924     
       837  -82037806     
       838  -82037938     
       839  -82037933     
       840  -82037914     
       841  -82037800     
       842  -82037759     
       843  -82037711     
       844  -82037616     
       845  -82037674     
       846  -82037692     
       847  -82037828     
       848  -82037758     
       849  -82037981     
       850  -82037932     
       851  -82038054     
       852  -82037937     
       853  -82037955     
       854  -82037910     
       855  -82037948     
       856  -82037857     
       857  -82037885     
       858  -82037902     
       859  -82037907     
       860  -82038076     
       861  -82037959     
       862  -82037939     
       863  -82037924     
       864  -82037800     
       865  -82037773     
       866  -82037845     
       867  -82037690     
       868  -82037746     
       869  -82037853     
       870  -82037803     
       871  -82037861     
       872  -82037887     
       873  -82037858     
       874  -82038010     
       875  -82037967     
       876  -82037889     
       877  -82038004     
       878  -82038017     
       879  -82037968     
       880  -82037965     
       881  -82037882     
       882  -82037796     
       883  -82037743     
       884  -82037799     
       885  -82037846     
       886  -82037811     
       887  -82037860     
       888  -82037823     
       889  -82037789     
       890  -82037928     
       891  -82037859     
       892  -82037860     
       893  -82037937     
       894  -82037979     
       895  -82037996     
       896  -82038071     
       897  -82038034     
       898  -82038028     
       899  -82037867     
       900  -82037872     
       901  -82037975     
       902  -82037939     
       903  -82037901     
       904  -82037982     
       905  -82037999     
       906  -82038069     
       907  -82037886     
       908  -82037852     
       909  -82037931     
       910  -82037976     
       911  -82037946     
       912  -82038110     
       913  -82038010     
       914  -82037997     
       915  -82038065     
       916  -82038013     
       917  -82038048     
       918  -82037950     
       919  -82037993     
       920  -82038056     
       921  -82037808     
       922  -82037791     
       923  -82037843     
       924  -82037940     
       925  -82038014     
       926  -82037968     
       927  -82037993     
       928  -82037976     
       929  -82037929     
       930  -82038036     
       931  -82038030     
       932  -82037834     
       933  -82037856     
       934  -82037970     
       935  -82037778     
       936  -82037883     
       937  -82037800     
       938  -82037854     
       939  -82037785     
       940  -82037917     
       941  -82037943     
       942  -82037861     
       943  -82037954     
       944  -82037913     
       945  -82037856     
       946  -82037948     
       947  -82037950     
       948  -82037919     
       949  -82037819     
       950  -82037777     
       951  -82037841     
       952  -82037895     
       953  -82037921     
       954  -82037915     
       955  -82037969     
       956  -82037895     
       957  -82037912     
       958  -82037912     
       959  -82037940     
       960  -82037920     
       961  -82037866     
       962  -82037962     
       963  -82037812     
       964  -82037891     
       965  -82038007     
       966  -82037996     
       967  -82037893     
       968  -82037879     
       969  -82037802     
       970  -82037824     
       971  -82037916     
       972  -82037934     
       973  -82037981     
       974  -82037796     
       975  -82037887     
       976  -82037855     
       977  -82037835     
       978  -82037813     
       979  -82037762     
       980  -82037851     
       981  -82037797     
       982  -82037790     
       983  -82037897     
       984  -82037995     
       985  -82038060     
       986  -82038053     
       987  -82038049     
       988  -82037970     
       989  -82038016     
       990  -82037871     
       991  -82038019     
       992  -82037995     
       993  -82037886     
       994  -82037834     
       995  -82037939     
       996  -82038015     
       997  -82037901     
       998  -82037883     
       999  -82037926     
      1000  -82037867     
Loop time of 4206.38 on 1 procs for 1000 steps with 526848 atoms

Performance: 0.010 ns/day, 2336.876 hours/ns, 0.238 timesteps/s, 125.250 katom-step/s
79.8% CPU use with 1 MPI tasks x 1 OpenMP threads

MPI task timing breakdown:
Section |  min time  |  avg time  |  max time  |%varavg| %total
---------------------------------------------------------------
Pair    | 667.71     | 667.71     | 667.71     |   0.0 | 15.87
Neigh   | 247.27     | 247.27     | 247.27     |   0.0 |  5.88
Comm    | 2.4857     | 2.4857     | 2.4857     |   0.0 |  0.06
Output  | 0.020178   | 0.020178   | 0.020178   |   0.0 |  0.00
Modify  | 3287.5     | 3287.5     | 3287.5     |   0.0 | 78.16
Other   |            | 1.395      |            |       |  0.03

Nlocal:         526848 ave      526848 max      526848 min
Histogram: 1 0 0 0 0 0 0 0 0 0
Nghost:         156756 ave      156756 max      156756 min
Histogram: 1 0 0 0 0 0 0 0 0 0
Neighs:              0 ave           0 max           0 min
Histogram: 1 0 0 0 0 0 0 0 0 0
FullNghs:  1.13868e+08 ave 1.13868e+08 max 1.13868e+08 min
Histogram: 1 0 0 0 0 0 0 0 0 0

Total # of neighbors = 1.1386774e+08
Ave neighs/atom = 216.13016
Neighbor list builds = 100
Dangerous builds not checked
write_data      final.${ibead}
write_data      final.06
System init for write_data ...
Generated 0 of 1 mixed pair_coeff terms from geometric mixing rule

Initializing PI Langevin equation thermostat...
Bead ID    |    omega    |    tau    |    c1    |    c2
    0     0.00000000e+00 1.00000000e+00 9.99750031e-01 2.23578850e-02
    1     2.46383091e+02 2.02936004e-03 8.84094302e-01 4.67308533e-01
    2     4.90393378e+02 1.01958962e-03 7.82550604e-01 6.22586984e-01
    3     7.29680909e+02 6.85231028e-04 6.94307415e-01 7.19678548e-01
    4     9.61941214e+02 5.19782282e-04 6.18183088e-01 7.86034141e-01
    5     1.18493750e+03 4.21963184e-04 5.52960477e-01 8.33207484e-01
    6     1.39652219e+03 3.58032263e-04 4.97449570e-01 8.67492896e-01
    7     1.59465761e+03 3.13546932e-04 4.50530815e-01 8.92760878e-01
    8     1.77743560e+03 2.81304144e-04 4.11182633e-01 9.11552984e-01
    9     1.94309592e+03 2.57321317e-04 3.78496688e-01 9.25602646e-01
    10     2.09004316e+03 2.39229510e-04 3.51684231e-01 9.36118690e-01
    11     2.21686214e+03 2.25544021e-04 3.30076422e-01 9.43954213e-01
    12     2.32233153e+03 2.15300871e-04 3.13120943e-01 9.49713259e-01
    13     2.40543559e+03 2.07862560e-04 3.00376739e-01 9.53820641e-01
    14     2.46537400e+03 2.02808986e-04 2.91508242e-01 9.56568317e-01
    15     2.50156951e+03 1.99874518e-04 2.86280050e-01 9.58145987e-01
    16     2.51367353e+03 1.98912068e-04 2.84552711e-01 9.58660396e-01
    17     2.50156951e+03 1.99874518e-04 2.86280050e-01 9.58145987e-01
    18     2.46537400e+03 2.02808986e-04 2.91508242e-01 9.56568317e-01
    19     2.40543559e+03 2.07862560e-04 3.00376739e-01 9.53820641e-01
    20     2.32233153e+03 2.15300871e-04 3.13120943e-01 9.49713259e-01
    21     2.21686214e+03 2.25544021e-04 3.30076422e-01 9.43954213e-01
    22     2.09004316e+03 2.39229510e-04 3.51684231e-01 9.36118690e-01
    23     1.94309592e+03 2.57321317e-04 3.78496688e-01 9.25602646e-01
    24     1.77743560e+03 2.81304144e-04 4.11182633e-01 9.11552984e-01
    25     1.59465761e+03 3.13546932e-04 4.50530815e-01 8.92760878e-01
    26     1.39652219e+03 3.58032263e-04 4.97449570e-01 8.67492896e-01
    27     1.18493750e+03 4.21963184e-04 5.52960477e-01 8.33207484e-01
    28     9.61941214e+02 5.19782282e-04 6.18183088e-01 7.86034141e-01
    29     7.29680909e+02 6.85231028e-04 6.94307415e-01 7.19678548e-01
    30     4.90393378e+02 1.01958962e-03 7.82550604e-01 6.22586984e-01
    31     2.46383091e+02 2.02936004e-03 8.84094302e-01 4.67308533e-01
PILE_L thermostat successfully initialized!

Total wall time: 1:10:50
