LAMMPS (2 Aug 2023)
Processor partition = 7
OMP_NUM_THREADS environment is not set. Defaulting to 1 thread. (src/comm.cpp:98)
  using 1 OpenMP thread(s) per MPI task
Loaded 1 plugins from /opt/deepmd-kit/lib/deepmd_lmp
clear
OMP_NUM_THREADS environment is not set. Defaulting to 1 thread. (src/comm.cpp:98)
  using 1 OpenMP thread(s) per MPI task
Loaded 1 plugins from /opt/deepmd-kit/lib/deepmd_lmp
# --------------------- VARIABLES-------------------------
variable        ibead           uloop 99 pad
variable        NSTEPS          equal 1000
variable        THERMO_FREQ     equal 1
#variable        DUMP_FREQ       equal 4000
#variable        NREPEAT         equal ${NSTEPS}/${DUMP_FREQ}
variable        TEMP            equal 300.000000
variable        TAU_T           equal 1.000000
# ---------------------- INITIALIZAITION ------------------
units           metal
boundary        p p p
atom_style      atomic
atom_modify     map yes
# --------------------- ATOM DEFINITION ------------------
read_data       /pscratch/sd/y/yifanl/Work/h2o/pimd/initial_config/conf01
Reading data file ...
  orthogonal box = (0 0 0) to (24.76926 24.76926 24.76926)
  1 by 1 by 1 MPI processor grid
  reading atoms ...
  1536 atoms
  read_data CPU = 0.005 seconds
mass            1 16.000000
mass            2 1.000000
replicate       2 2 2
Replication is creating a 2x2x2 = 8 times larger system...
  orthogonal box = (0 0 0) to (49.53852 49.53852 49.53852)
  1 by 1 by 1 MPI processor grid
  12288 atoms
  replicate CPU = 0.001 seconds
# --------------------- FORCE FIELDS ---------------------
pair_style      deepmd /pscratch/sd/y/yifanl/Work/h2o/pimd/benchmark/graph.pb
Summary of lammps deepmd module ...
  >>> Info of deepmd-kit:
  installed to:       /opt/deepmd-kit
  source:             
  source branch:      HEAD
  source commit:      5ec5eae
  source commit at:   2024-02-04 18:53:26 -0500
  support model ver.: 1.1 
  build variant:      cuda
  build with tf inc:  /opt/deepmd-kit/lib/python3.11/site-packages/tensorflow/include;/opt/deepmd-kit/include
  build with tf lib:  /opt/deepmd-kit/lib/python3.11/site-packages/tensorflow/libtensorflow_cc.so.2
  set tf intra_op_parallelism_threads: 0
  set tf inter_op_parallelism_threads: 0
  >>> Info of lammps module:
  use deepmd-kit at:  /opt/deepmd-kitpair_coeff * *
# --------------------- MD SETTINGS ----------------------
neighbor        2.0 bin
neigh_modify    every 10 delay 0 check no
timestep        0.000500
thermo          ${THERMO_FREQ}
thermo          1
thermo_style    custom step pe
#dump            1 all custom ${DUMP_FREQ} ${ibead}.xyz id type x y z
#dump_modify     1 sort id
fix 1 all pimd/langevin ensemble nvt integrator obabo temp ${TEMP} thermostat PILE_L 1234 tau ${TAU_T}
fix 1 all pimd/langevin ensemble nvt integrator obabo temp 300 thermostat PILE_L 1234 tau ${TAU_T}
fix 1 all pimd/langevin ensemble nvt integrator obabo temp 300 thermostat PILE_L 1234 tau 1
# --------------------- RUN ------------------------------
run             ${NSTEPS}
run             1000

CITE-CITE-CITE-CITE-CITE-CITE-CITE-CITE-CITE-CITE-CITE-CITE-CITE

Your simulation uses code contributions which should be cited:

- USER-DEEPMD package:

@article{Wang_ComputPhysCommun_2018_v228_p178,
  author = {Wang, Han and Zhang, Linfeng and Han, Jiequn and E, Weinan},
  doi = {10.1016/j.cpc.2018.03.016},
  url = {https://doi.org/10.1016/j.cpc.2018.03.016},
  year = 2018,
  month = {jul},
  publisher = {Elsevier {BV}},
  volume = 228,
  journal = {Comput. Phys. Commun.},
  title = {{DeePMD-kit: A deep learning package for many-body potential energy representation and molecular dynamics}},
  pages = {178--184}
}
@misc{Zeng_JChemPhys_2023_v159_p054801,
  title  = {{DeePMD-kit v2: A software package for deep potential models}},
  author =   {Jinzhe Zeng and Duo Zhang and Denghui Lu and Pinghui Mo and Zeyu Li
         and Yixiao Chen and Mari{\'a}n Rynik and Li'ang Huang and Ziyao Li and 
         Shaochen Shi and Yingze Wang and Haotian Ye and Ping Tuo and Jiabin
         Yang and Ye Ding and Yifan Li and Davide Tisi and Qiyu Zeng and Han 
         Bao and Yu Xia and Jiameng Huang and Koki Muraoka and Yibo Wang and 
         Junhan Chang and Fengbo Yuan and Sigbj{\o}rn L{\o}land Bore and Chun
         Cai and Yinnian Lin and Bo Wang and Jiayan Xu and Jia-Xin Zhu and 
         Chenxing Luo and Yuzhi Zhang and Rhys E A Goodall and Wenshuo Liang
         and Anurag Kumar Singh and Sikai Yao and Jingchao Zhang and Renata
         Wentzcovitch and Jiequn Han and Jie Liu and Weile Jia and Darrin M
         York and Weinan E and Roberto Car and Linfeng Zhang and Han Wang},
  journal =  {J. Chem. Phys.},
  volume =   159,
  issue =    5,  
  year =    2023,
  pages  =   054801,
  doi =      {10.1063/5.0155600},
}

CITE-CITE-CITE-CITE-CITE-CITE-CITE-CITE-CITE-CITE-CITE-CITE-CITE

Generated 0 of 1 mixed pair_coeff terms from geometric mixing rule

Initializing PI Langevin equation thermostat...
Bead ID    |    omega    |    tau    |    c1    |    c2
    0     0.00000000e+00 1.00000000e+00 9.99750031e-01 2.23578850e-02
    1     2.46383091e+02 2.02936004e-03 8.84094302e-01 4.67308533e-01
    2     4.90393378e+02 1.01958962e-03 7.82550604e-01 6.22586984e-01
    3     7.29680909e+02 6.85231028e-04 6.94307415e-01 7.19678548e-01
    4     9.61941214e+02 5.19782282e-04 6.18183088e-01 7.86034141e-01
    5     1.18493750e+03 4.21963184e-04 5.52960477e-01 8.33207484e-01
    6     1.39652219e+03 3.58032263e-04 4.97449570e-01 8.67492896e-01
    7     1.59465761e+03 3.13546932e-04 4.50530815e-01 8.92760878e-01
    8     1.77743560e+03 2.81304144e-04 4.11182633e-01 9.11552984e-01
    9     1.94309592e+03 2.57321317e-04 3.78496688e-01 9.25602646e-01
    10     2.09004316e+03 2.39229510e-04 3.51684231e-01 9.36118690e-01
    11     2.21686214e+03 2.25544021e-04 3.30076422e-01 9.43954213e-01
    12     2.32233153e+03 2.15300871e-04 3.13120943e-01 9.49713259e-01
    13     2.40543559e+03 2.07862560e-04 3.00376739e-01 9.53820641e-01
    14     2.46537400e+03 2.02808986e-04 2.91508242e-01 9.56568317e-01
    15     2.50156951e+03 1.99874518e-04 2.86280050e-01 9.58145987e-01
    16     2.51367353e+03 1.98912068e-04 2.84552711e-01 9.58660396e-01
    17     2.50156951e+03 1.99874518e-04 2.86280050e-01 9.58145987e-01
    18     2.46537400e+03 2.02808986e-04 2.91508242e-01 9.56568317e-01
    19     2.40543559e+03 2.07862560e-04 3.00376739e-01 9.53820641e-01
    20     2.32233153e+03 2.15300871e-04 3.13120943e-01 9.49713259e-01
    21     2.21686214e+03 2.25544021e-04 3.30076422e-01 9.43954213e-01
    22     2.09004316e+03 2.39229510e-04 3.51684231e-01 9.36118690e-01
    23     1.94309592e+03 2.57321317e-04 3.78496688e-01 9.25602646e-01
    24     1.77743560e+03 2.81304144e-04 4.11182633e-01 9.11552984e-01
    25     1.59465761e+03 3.13546932e-04 4.50530815e-01 8.92760878e-01
    26     1.39652219e+03 3.58032263e-04 4.97449570e-01 8.67492896e-01
    27     1.18493750e+03 4.21963184e-04 5.52960477e-01 8.33207484e-01
    28     9.61941214e+02 5.19782282e-04 6.18183088e-01 7.86034141e-01
    29     7.29680909e+02 6.85231028e-04 6.94307415e-01 7.19678548e-01
    30     4.90393378e+02 1.01958962e-03 7.82550604e-01 6.22586984e-01
    31     2.46383091e+02 2.02936004e-03 8.84094302e-01 4.67308533e-01
PILE_L thermostat successfully initialized!

Neighbor list info ...
  update: every = 10 steps, delay = 0 steps, check = no
  max neighbors/atom: 2000, page size: 100000
  master list distance cutoff = 8
  ghost atom cutoff = 8
  binsize = 4, bins = 13 13 13
  1 neighbor lists, perpetual/occasional/extra = 1 0 0
  (1) pair deepmd, perpetual
      attributes: full, newton on
      pair build: full/bin/atomonly
      stencil: full/bin/3d
      bin: standard
Per MPI rank memory allocation (min/avg/max) = 15.5 | 15.5 | 15.5 Mbytes
   Step         PotEng    
         0  -1914325.3    
         1  -1914110.1    
         2  -1913934.5    
         3  -1913817.3    
         4  -1913727      
         5  -1913645.6    
         6  -1913596.4    
         7  -1913528.1    
         8  -1913473.7    
         9  -1913460.8    
        10  -1913442.9    
        11  -1913457.7    
        12  -1913468      
        13  -1913485.4    
        14  -1913491.6    
        15  -1913499      
        16  -1913494.9    
        17  -1913462.3    
        18  -1913449.8    
        19  -1913463      
        20  -1913459      
        21  -1913471.1    
        22  -1913497.5    
        23  -1913540.2    
        24  -1913566.3    
        25  -1913566.6    
        26  -1913561.1    
        27  -1913546      
        28  -1913525.9    
        29  -1913492.1    
        30  -1913503.5    
        31  -1913511.6    
        32  -1913488.1    
        33  -1913498.1    
        34  -1913501.2    
        35  -1913496.7    
        36  -1913482.5    
        37  -1913451      
        38  -1913441      
        39  -1913440.3    
        40  -1913451.2    
        41  -1913473.9    
        42  -1913493.1    
        43  -1913500.4    
        44  -1913522.3    
        45  -1913516.2    
        46  -1913508.3    
        47  -1913515.3    
        48  -1913480.7    
        49  -1913502.5    
        50  -1913503.1    
        51  -1913489.4    
        52  -1913505.1    
        53  -1913511.3    
        54  -1913496      
        55  -1913486.3    
        56  -1913471.1    
        57  -1913469.7    
        58  -1913486.3    
        59  -1913494.5    
        60  -1913473.5    
        61  -1913478.4    
        62  -1913492.7    
        63  -1913475.6    
        64  -1913492.9    
        65  -1913495.2    
        66  -1913523.2    
        67  -1913502.2    
        68  -1913514.5    
        69  -1913544.3    
        70  -1913535.4    
        71  -1913518.5    
        72  -1913519.4    
        73  -1913515.2    
        74  -1913502.1    
        75  -1913497.5    
        76  -1913497.7    
        77  -1913475.3    
        78  -1913478.7    
        79  -1913472.6    
        80  -1913487.4    
        81  -1913493.8    
        82  -1913471.7    
        83  -1913478.3    
        84  -1913490.6    
        85  -1913496.3    
        86  -1913505.4    
        87  -1913512.8    
        88  -1913518.4    
        89  -1913511.2    
        90  -1913522.2    
        91  -1913520.4    
        92  -1913503.3    
        93  -1913496.6    
        94  -1913510.2    
        95  -1913510.1    
        96  -1913499      
        97  -1913471.7    
        98  -1913470.3    
        99  -1913487.2    
       100  -1913473.3    
       101  -1913488.8    
       102  -1913469.9    
       103  -1913472      
       104  -1913478.5    
       105  -1913479.7    
       106  -1913479      
       107  -1913494.7    
       108  -1913496      
       109  -1913501.1    
       110  -1913522      
       111  -1913516.3    
       112  -1913500.3    
       113  -1913494.4    
       114  -1913464.2    
       115  -1913457.1    
       116  -1913445      
       117  -1913453.9    
       118  -1913445.3    
       119  -1913443.6    
       120  -1913472.3    
       121  -1913476.6    
       122  -1913480.8    
       123  -1913459.1    
       124  -1913467.1    
       125  -1913444.4    
       126  -1913463.4    
       127  -1913482.1    
       128  -1913480.1    
       129  -1913469.6    
       130  -1913497.2    
       131  -1913504.5    
       132  -1913511.6    
       133  -1913496      
       134  -1913520.4    
       135  -1913492.5    
       136  -1913462.6    
       137  -1913454.1    
       138  -1913447.9    
       139  -1913464.9    
       140  -1913479.9    
       141  -1913486.8    
       142  -1913473.3    
       143  -1913464.6    
       144  -1913454.4    
       145  -1913475.2    
       146  -1913492.3    
       147  -1913489.2    
       148  -1913486      
       149  -1913500.3    
       150  -1913520.8    
       151  -1913508.8    
       152  -1913501      
       153  -1913507.8    
       154  -1913499.8    
       155  -1913505.9    
       156  -1913497.1    
       157  -1913475.8    
       158  -1913467.7    
       159  -1913460.5    
       160  -1913465.4    
       161  -1913486      
       162  -1913471.3    
       163  -1913480.1    
       164  -1913465.3    
       165  -1913467.9    
       166  -1913464.2    
       167  -1913467.4    
       168  -1913481.2    
       169  -1913479.6    
       170  -1913487.3    
       171  -1913480.2    
       172  -1913468.9    
       173  -1913492.4    
       174  -1913489.5    
       175  -1913470.6    
       176  -1913485.4    
       177  -1913463.4    
       178  -1913472.5    
       179  -1913472.8    
       180  -1913478      
       181  -1913472.3    
       182  -1913486.7    
       183  -1913501      
       184  -1913481.8    
       185  -1913471.7    
       186  -1913474.1    
       187  -1913482.2    
       188  -1913479.5    
       189  -1913480.8    
       190  -1913504.1    
       191  -1913487.3    
       192  -1913489.5    
       193  -1913491.6    
       194  -1913493.4    
       195  -1913489.3    
       196  -1913491.9    
       197  -1913476      
       198  -1913484.2    
       199  -1913478.6    
       200  -1913456.6    
       201  -1913470.6    
       202  -1913463.8    
       203  -1913470.8    
       204  -1913473.1    
       205  -1913468.8    
       206  -1913486      
       207  -1913461.6    
       208  -1913469.1    
       209  -1913462.5    
       210  -1913456.1    
       211  -1913450.7    
       212  -1913470      
       213  -1913471      
       214  -1913477      
       215  -1913471.6    
       216  -1913465.3    
       217  -1913466.1    
       218  -1913467      
       219  -1913489      
       220  -1913490.1    
       221  -1913462.6    
       222  -1913481.3    
       223  -1913472      
       224  -1913479.8    
       225  -1913459.8    
       226  -1913457      
       227  -1913457      
       228  -1913465.9    
       229  -1913454.6    
       230  -1913451.5    
       231  -1913465.4    
       232  -1913465.5    
       233  -1913462.4    
       234  -1913471      
       235  -1913477.5    
       236  -1913468.1    
       237  -1913471.3    
       238  -1913459.4    
       239  -1913467      
       240  -1913460.5    
       241  -1913460      
       242  -1913456.9    
       243  -1913458.4    
       244  -1913471.7    
       245  -1913453.1    
       246  -1913450.5    
       247  -1913486.6    
       248  -1913473.7    
       249  -1913483.9    
       250  -1913476.1    
       251  -1913468.2    
       252  -1913454.2    
       253  -1913462.9    
       254  -1913455.7    
       255  -1913457.1    
       256  -1913474      
       257  -1913468.6    
       258  -1913465      
       259  -1913457.2    
       260  -1913455.2    
       261  -1913455.2    
       262  -1913460.2    
       263  -1913483.5    
       264  -1913453.9    
       265  -1913452.3    
       266  -1913449      
       267  -1913435.6    
       268  -1913448.8    
       269  -1913446.7    
       270  -1913445.9    
       271  -1913457.6    
       272  -1913463.5    
       273  -1913455.8    
       274  -1913452.7    
       275  -1913461.7    
       276  -1913468.6    
       277  -1913480      
       278  -1913459.2    
       279  -1913449      
       280  -1913469.3    
       281  -1913471.4    
       282  -1913478.3    
       283  -1913471      
       284  -1913465.4    
       285  -1913444.7    
       286  -1913439.3    
       287  -1913443.2    
       288  -1913451.8    
       289  -1913474.4    
       290  -1913477.8    
       291  -1913472.9    
       292  -1913451.8    
       293  -1913457.2    
       294  -1913456.8    
       295  -1913467.6    
       296  -1913467.3    
       297  -1913457.9    
       298  -1913463.6    
       299  -1913440.2    
       300  -1913440.8    
       301  -1913456      
       302  -1913473.4    
       303  -1913478.2    
       304  -1913458.5    
       305  -1913458.1    
       306  -1913456.7    
       307  -1913466.6    
       308  -1913463.2    
       309  -1913456.2    
       310  -1913477.2    
       311  -1913475.1    
       312  -1913468      
       313  -1913496      
       314  -1913490.5    
       315  -1913472.9    
       316  -1913475.2    
       317  -1913481.3    
       318  -1913474.4    
       319  -1913454.7    
       320  -1913461.2    
       321  -1913454.8    
       322  -1913465.8    
       323  -1913482.1    
       324  -1913463.4    
       325  -1913438.3    
       326  -1913442.3    
       327  -1913445.8    
       328  -1913434.2    
       329  -1913433.3    
       330  -1913413.6    
       331  -1913421.5    
       332  -1913421.3    
       333  -1913429.8    
       334  -1913423.8    
       335  -1913439.5    
       336  -1913465.7    
       337  -1913446.9    
       338  -1913443.6    
       339  -1913430.3    
       340  -1913446.9    
       341  -1913455.2    
       342  -1913443.9    
       343  -1913440.1    
       344  -1913462.7    
       345  -1913449.5    
       346  -1913420.8    
       347  -1913412.6    
       348  -1913430.1    
       349  -1913417.7    
       350  -1913412.6    
       351  -1913433.4    
       352  -1913463.1    
       353  -1913446      
       354  -1913428.9    
       355  -1913441.5    
       356  -1913457.4    
       357  -1913464.9    
       358  -1913454      
       359  -1913442.4    
       360  -1913453.6    
       361  -1913444.7    
       362  -1913444.5    
       363  -1913447.1    
       364  -1913465.1    
       365  -1913471.6    
       366  -1913453.9    
       367  -1913455.7    
       368  -1913459.9    
       369  -1913468.7    
       370  -1913467.8    
       371  -1913459.9    
       372  -1913457.4    
       373  -1913455.9    
       374  -1913459      
       375  -1913466.5    
       376  -1913457.6    
       377  -1913458.5    
       378  -1913430.3    
       379  -1913409.6    
       380  -1913425      
       381  -1913447.9    
       382  -1913465.9    
       383  -1913455.3    
       384  -1913455.4    
       385  -1913448.3    
       386  -1913448.6    
       387  -1913464.5    
       388  -1913461.2    
       389  -1913431.6    
       390  -1913458.8    
       391  -1913452.3    
       392  -1913446.5    
       393  -1913441.3    
       394  -1913442.8    
       395  -1913444.5    
       396  -1913424.4    
       397  -1913428.2    
       398  -1913407.6    
       399  -1913419.2    
       400  -1913434.1    
       401  -1913442.1    
       402  -1913452.5    
       403  -1913434      
       404  -1913438.2    
       405  -1913444.5    
       406  -1913435.6    
       407  -1913445.7    
       408  -1913444.2    
       409  -1913439.6    
       410  -1913448.6    
       411  -1913453.2    
       412  -1913460.8    
       413  -1913443.6    
       414  -1913436.2    
       415  -1913451.4    
       416  -1913447.4    
       417  -1913446.9    
       418  -1913445.7    
       419  -1913434.4    
       420  -1913452.4    
       421  -1913461.2    
       422  -1913452      
       423  -1913458.6    
       424  -1913442.8    
       425  -1913447.9    
       426  -1913449.9    
       427  -1913447.3    
       428  -1913476.6    
       429  -1913469.4    
       430  -1913456.4    
       431  -1913450.9    
       432  -1913442.5    
       433  -1913431.1    
       434  -1913443.4    
       435  -1913443.3    
       436  -1913442.3    
       437  -1913457.7    
       438  -1913463.3    
       439  -1913441.2    
       440  -1913440.2    
       441  -1913421.6    
       442  -1913429.6    
       443  -1913449.4    
       444  -1913433.6    
       445  -1913444.4    
       446  -1913452.7    
       447  -1913459      
       448  -1913447.4    
       449  -1913441.8    
       450  -1913434      
       451  -1913432      
       452  -1913439.5    
       453  -1913442.2    
       454  -1913457.9    
       455  -1913469.7    
       456  -1913471.9    
       457  -1913454.4    
       458  -1913446.5    
       459  -1913437.4    
       460  -1913454.5    
       461  -1913460.5    
       462  -1913443.7    
       463  -1913457.4    
       464  -1913456      
       465  -1913446      
       466  -1913453.7    
       467  -1913452.3    
       468  -1913451.1    
       469  -1913438.3    
       470  -1913439.7    
       471  -1913426.7    
       472  -1913435.7    
       473  -1913446.3    
       474  -1913455.7    
       475  -1913451.3    
       476  -1913443.3    
       477  -1913439.3    
       478  -1913424.9    
       479  -1913435.9    
       480  -1913416.2    
       481  -1913434.1    
       482  -1913435.3    
       483  -1913430.4    
       484  -1913451      
       485  -1913447.5    
       486  -1913432.6    
       487  -1913456.8    
       488  -1913435.8    
       489  -1913444.7    
       490  -1913465.1    
       491  -1913453.1    
       492  -1913452.6    
       493  -1913445      
       494  -1913451.9    
       495  -1913445.4    
       496  -1913435.2    
       497  -1913423.4    
       498  -1913431.5    
       499  -1913470.6    
       500  -1913441.3    
       501  -1913433.5    
       502  -1913432.7    
       503  -1913435      
       504  -1913426.5    
       505  -1913450.3    
       506  -1913438.3    
       507  -1913435      
       508  -1913421.3    
       509  -1913429.7    
       510  -1913430.7    
       511  -1913431.8    
       512  -1913431.7    
       513  -1913451.1    
       514  -1913442.2    
       515  -1913430.3    
       516  -1913417.9    
       517  -1913428.8    
       518  -1913432.8    
       519  -1913436.5    
       520  -1913436.6    
       521  -1913450.4    
       522  -1913443.9    
       523  -1913435.1    
       524  -1913437.4    
       525  -1913437.2    
       526  -1913443.1    
       527  -1913450.7    
       528  -1913446      
       529  -1913438.4    
       530  -1913424.6    
       531  -1913415.4    
       532  -1913413.4    
       533  -1913424.7    
       534  -1913397.6    
       535  -1913419.7    
       536  -1913432.3    
       537  -1913419.2    
       538  -1913418.3    
       539  -1913431      
       540  -1913434.2    
       541  -1913422.7    
       542  -1913426.8    
       543  -1913433.9    
       544  -1913439.7    
       545  -1913442      
       546  -1913435.9    
       547  -1913449.3    
       548  -1913441.8    
       549  -1913433.1    
       550  -1913429.5    
       551  -1913446.7    
       552  -1913447.7    
       553  -1913455.5    
       554  -1913434.5    
       555  -1913437.4    
       556  -1913452.2    
       557  -1913441.8    
       558  -1913454      
       559  -1913454.7    
       560  -1913451.6    
       561  -1913456.7    
       562  -1913465.6    
       563  -1913454.7    
       564  -1913453.2    
       565  -1913462.2    
       566  -1913444.6    
       567  -1913432.2    
       568  -1913422.1    
       569  -1913434.1    
       570  -1913416.9    
       571  -1913439.5    
       572  -1913450.9    
       573  -1913440.5    
       574  -1913430.4    
       575  -1913443.2    
       576  -1913424.1    
       577  -1913416.8    
       578  -1913452.3    
       579  -1913452.4    
       580  -1913439.7    
       581  -1913448.3    
       582  -1913442.7    
       583  -1913442.7    
       584  -1913463.2    
       585  -1913458.2    
       586  -1913457.9    
       587  -1913466.5    
       588  -1913461.2    
       589  -1913446.1    
       590  -1913457.4    
       591  -1913445.5    
       592  -1913451.5    
       593  -1913425.5    
       594  -1913418.4    
       595  -1913420.4    
       596  -1913433.5    
       597  -1913432.7    
       598  -1913443.3    
       599  -1913443.3    
       600  -1913443      
       601  -1913447.3    
       602  -1913440.4    
       603  -1913446.4    
       604  -1913452.3    
       605  -1913438.7    
       606  -1913437.9    
       607  -1913435.6    
       608  -1913432.1    
       609  -1913454.4    
       610  -1913456.2    
       611  -1913454.7    
       612  -1913450.3    
       613  -1913451.8    
       614  -1913455.7    
       615  -1913444.5    
       616  -1913430.6    
       617  -1913403.7    
       618  -1913415.3    
       619  -1913418.9    
       620  -1913406.9    
       621  -1913424.4    
       622  -1913435.8    
       623  -1913432.6    
       624  -1913429.4    
       625  -1913440      
       626  -1913439.5    
       627  -1913463.3    
       628  -1913455.8    
       629  -1913436.7    
       630  -1913446.6    
       631  -1913446.4    
       632  -1913421.1    
       633  -1913411.3    
       634  -1913399.2    
       635  -1913420.9    
       636  -1913423.3    
       637  -1913428.5    
       638  -1913418.5    
       639  -1913433.2    
       640  -1913436.1    
       641  -1913434.4    
       642  -1913436.6    
       643  -1913436      
       644  -1913416.3    
       645  -1913424      
       646  -1913422.5    
       647  -1913414.3    
       648  -1913418.6    
       649  -1913439.9    
       650  -1913462.5    
       651  -1913449.8    
       652  -1913427.4    
       653  -1913413.3    
       654  -1913427.6    
       655  -1913428.6    
       656  -1913433.8    
       657  -1913425.9    
       658  -1913440.9    
       659  -1913450.4    
       660  -1913440.3    
       661  -1913431.6    
       662  -1913426.8    
       663  -1913427.3    
       664  -1913434      
       665  -1913409.7    
       666  -1913417.3    
       667  -1913451      
       668  -1913432.6    
       669  -1913425.9    
       670  -1913422.2    
       671  -1913396.5    
       672  -1913401.6    
       673  -1913417.4    
       674  -1913431.8    
       675  -1913428.2    
       676  -1913425.6    
       677  -1913420.8    
       678  -1913429.4    
       679  -1913415.6    
       680  -1913429.4    
       681  -1913435.6    
       682  -1913421.8    
       683  -1913439.3    
       684  -1913441.1    
       685  -1913430.4    
       686  -1913443.2    
       687  -1913452.1    
       688  -1913433      
       689  -1913436.7    
       690  -1913443.8    
       691  -1913442.3    
       692  -1913437.3    
       693  -1913425.1    
       694  -1913453.5    
       695  -1913447.9    
       696  -1913449.2    
       697  -1913431.6    
       698  -1913420.5    
       699  -1913410.5    
       700  -1913386.4    
       701  -1913427.7    
       702  -1913436      
       703  -1913436.8    
       704  -1913435.1    
       705  -1913433.7    
       706  -1913437.7    
       707  -1913452.8    
       708  -1913448.6    
       709  -1913433.1    
       710  -1913426.8    
       711  -1913424.7    
       712  -1913433.1    
       713  -1913427.9    
       714  -1913427.8    
       715  -1913411.8    
       716  -1913423.1    
       717  -1913430.8    
       718  -1913441.2    
       719  -1913421.9    
       720  -1913426      
       721  -1913408.6    
       722  -1913405.3    
       723  -1913409.1    
       724  -1913413.8    
       725  -1913412.1    
       726  -1913411.9    
       727  -1913410.3    
       728  -1913411      
       729  -1913401.9    
       730  -1913397.4    
       731  -1913414.7    
       732  -1913422.1    
       733  -1913430.4    
       734  -1913424.1    
       735  -1913392.8    
       736  -1913399.4    
       737  -1913427.5    
       738  -1913440.7    
       739  -1913429.1    
       740  -1913440.3    
       741  -1913449.7    
       742  -1913434.9    
       743  -1913423.1    
       744  -1913406.6    
       745  -1913409.2    
       746  -1913437.8    
       747  -1913447.2    
       748  -1913432      
       749  -1913442.6    
       750  -1913451.2    
       751  -1913444.2    
       752  -1913430.7    
       753  -1913434      
       754  -1913440.1    
       755  -1913434.3    
       756  -1913428.3    
       757  -1913425.6    
       758  -1913433.9    
       759  -1913423.4    
       760  -1913421.8    
       761  -1913421.8    
       762  -1913425.7    
       763  -1913436.7    
       764  -1913446.3    
       765  -1913451      
       766  -1913434.9    
       767  -1913449.1    
       768  -1913456.7    
       769  -1913441.4    
       770  -1913428.7    
       771  -1913431.7    
       772  -1913414.7    
       773  -1913415.6    
       774  -1913430.4    
       775  -1913428.9    
       776  -1913407.7    
       777  -1913430.6    
       778  -1913408.6    
       779  -1913411.9    
       780  -1913424.9    
       781  -1913434.8    
       782  -1913407.9    
       783  -1913405.3    
       784  -1913418.6    
       785  -1913418.1    
       786  -1913431.3    
       787  -1913429.7    
       788  -1913430.6    
       789  -1913413.7    
       790  -1913434.2    
       791  -1913416.4    
       792  -1913417.2    
       793  -1913436.6    
       794  -1913422.5    
       795  -1913426.5    
       796  -1913446.3    
       797  -1913427.9    
       798  -1913417.3    
       799  -1913417.7    
       800  -1913413.7    
       801  -1913421.7    
       802  -1913425.5    
       803  -1913433.4    
       804  -1913452.9    
       805  -1913419.6    
       806  -1913424.9    
       807  -1913427.2    
       808  -1913434.3    
       809  -1913427.5    
       810  -1913420.5    
       811  -1913421.9    
       812  -1913414.4    
       813  -1913419.6    
       814  -1913429.5    
       815  -1913430.9    
       816  -1913422      
       817  -1913419.9    
       818  -1913422.7    
       819  -1913432.6    
       820  -1913440.4    
       821  -1913435.5    
       822  -1913406      
       823  -1913399.7    
       824  -1913409      
       825  -1913421.3    
       826  -1913433.7    
       827  -1913439.6    
       828  -1913423.4    
       829  -1913420.6    
       830  -1913423.6    
       831  -1913429.6    
       832  -1913409.7    
       833  -1913399.2    
       834  -1913398.7    
       835  -1913410.9    
       836  -1913427.9    
       837  -1913422.6    
       838  -1913422.5    
       839  -1913416.6    
       840  -1913443.3    
       841  -1913426.3    
       842  -1913423.8    
       843  -1913409.2    
       844  -1913418.6    
       845  -1913438.3    
       846  -1913430.8    
       847  -1913428.4    
       848  -1913435.3    
       849  -1913415.6    
       850  -1913406.9    
       851  -1913414.5    
       852  -1913407.7    
       853  -1913401.9    
       854  -1913414.3    
       855  -1913400.3    
       856  -1913432.6    
       857  -1913428.7    
       858  -1913419.8    
       859  -1913425.5    
       860  -1913443.5    
       861  -1913447.7    
       862  -1913443.4    
       863  -1913429.9    
       864  -1913426.3    
       865  -1913426.2    
       866  -1913428.4    
       867  -1913429.5    
       868  -1913426.7    
       869  -1913428.2    
       870  -1913416.4    
       871  -1913412.1    
       872  -1913427.4    
       873  -1913429.7    
       874  -1913454.4    
       875  -1913458.3    
       876  -1913447.3    
       877  -1913409.3    
       878  -1913418.1    
       879  -1913409.7    
       880  -1913404.1    
       881  -1913414      
       882  -1913418.8    
       883  -1913437      
       884  -1913418.2    
       885  -1913416      
       886  -1913421.6    
       887  -1913416.8    
       888  -1913421.8    
       889  -1913407.3    
       890  -1913410.2    
       891  -1913410.5    
       892  -1913410.4    
       893  -1913415      
       894  -1913402.1    
       895  -1913390.1    
       896  -1913393.5    
       897  -1913418.8    
       898  -1913432.9    
       899  -1913438.6    
       900  -1913445      
       901  -1913440.4    
       902  -1913426.4    
       903  -1913386.3    
       904  -1913396.8    
       905  -1913406.6    
       906  -1913421      
       907  -1913423.1    
       908  -1913418.4    
       909  -1913416      
       910  -1913409.4    
       911  -1913427.5    
       912  -1913430.6    
       913  -1913424.7    
       914  -1913408.1    
       915  -1913407.4    
       916  -1913411.4    
       917  -1913417.4    
       918  -1913419.9    
       919  -1913412.4    
       920  -1913420.4    
       921  -1913430.3    
       922  -1913430.4    
       923  -1913448.2    
       924  -1913434.5    
       925  -1913418.2    
       926  -1913413.7    
       927  -1913431.1    
       928  -1913421.8    
       929  -1913415.5    
       930  -1913417.8    
       931  -1913433.8    
       932  -1913423.6    
       933  -1913428.9    
       934  -1913434      
       935  -1913436.6    
       936  -1913422.5    
       937  -1913427.2    
       938  -1913414      
       939  -1913422.8    
       940  -1913413.5    
       941  -1913416.6    
       942  -1913410.9    
       943  -1913421.8    
       944  -1913415.1    
       945  -1913406.4    
       946  -1913392.4    
       947  -1913412.1    
       948  -1913413      
       949  -1913400.6    
       950  -1913394.2    
       951  -1913392.2    
       952  -1913415.5    
       953  -1913410.3    
       954  -1913417.3    
       955  -1913419.6    
       956  -1913426.8    
       957  -1913431.4    
       958  -1913438.4    
       959  -1913426.4    
       960  -1913425.7    
       961  -1913418.1    
       962  -1913427.9    
       963  -1913415.6    
       964  -1913413.7    
       965  -1913410      
       966  -1913411.6    
       967  -1913408.5    
       968  -1913383.7    
       969  -1913394.4    
       970  -1913411.4    
       971  -1913431.9    
       972  -1913431.1    
       973  -1913433.1    
       974  -1913431.9    
       975  -1913433.7    
       976  -1913428      
       977  -1913414.4    
       978  -1913403      
       979  -1913406.8    
       980  -1913434.5    
       981  -1913430.6    
       982  -1913417      
       983  -1913415.3    
       984  -1913406.5    
       985  -1913407.3    
       986  -1913434.1    
       987  -1913423.2    
       988  -1913416      
       989  -1913439.5    
       990  -1913425.1    
       991  -1913406      
       992  -1913409.8    
       993  -1913404.1    
       994  -1913418.4    
       995  -1913428.3    
       996  -1913413.9    
       997  -1913429      
       998  -1913436.5    
       999  -1913439      
      1000  -1913449.1    
Loop time of 219.836 on 1 procs for 1000 steps with 12288 atoms

Performance: 0.197 ns/day, 122.131 hours/ns, 4.549 timesteps/s, 55.896 katom-step/s
100.9% CPU use with 1 MPI tasks x 1 OpenMP threads

MPI task timing breakdown:
Section |  min time  |  avg time  |  max time  |%varavg| %total
---------------------------------------------------------------
Pair    | 74.498     | 74.498     | 74.498     |   0.0 | 33.89
Neigh   | 6.3142     | 6.3142     | 6.3142     |   0.0 |  2.87
Comm    | 0.11672    | 0.11672    | 0.11672    |   0.0 |  0.05
Output  | 0.022545   | 0.022545   | 0.022545   |   0.0 |  0.01
Modify  | 138.83     | 138.83     | 138.83     |   0.0 | 63.15
Other   |            | 0.05274    |            |       |  0.02

Nlocal:          12288 ave       12288 max       12288 min
Histogram: 1 0 0 0 0 0 0 0 0 0
Nghost:          15844 ave       15844 max       15844 min
Histogram: 1 0 0 0 0 0 0 0 0 0
Neighs:              0 ave           0 max           0 min
Histogram: 1 0 0 0 0 0 0 0 0 0
FullNghs:  2.65542e+06 ave 2.65542e+06 max 2.65542e+06 min
Histogram: 1 0 0 0 0 0 0 0 0 0

Total # of neighbors = 2655416
Ave neighs/atom = 216.09831
Neighbor list builds = 100
Dangerous builds not checked
write_data      final.${ibead}
write_data      final.08
System init for write_data ...
Generated 0 of 1 mixed pair_coeff terms from geometric mixing rule

Initializing PI Langevin equation thermostat...
Bead ID    |    omega    |    tau    |    c1    |    c2
    0     0.00000000e+00 1.00000000e+00 9.99750031e-01 2.23578850e-02
    1     2.46383091e+02 2.02936004e-03 8.84094302e-01 4.67308533e-01
    2     4.90393378e+02 1.01958962e-03 7.82550604e-01 6.22586984e-01
    3     7.29680909e+02 6.85231028e-04 6.94307415e-01 7.19678548e-01
    4     9.61941214e+02 5.19782282e-04 6.18183088e-01 7.86034141e-01
    5     1.18493750e+03 4.21963184e-04 5.52960477e-01 8.33207484e-01
    6     1.39652219e+03 3.58032263e-04 4.97449570e-01 8.67492896e-01
    7     1.59465761e+03 3.13546932e-04 4.50530815e-01 8.92760878e-01
    8     1.77743560e+03 2.81304144e-04 4.11182633e-01 9.11552984e-01
    9     1.94309592e+03 2.57321317e-04 3.78496688e-01 9.25602646e-01
    10     2.09004316e+03 2.39229510e-04 3.51684231e-01 9.36118690e-01
    11     2.21686214e+03 2.25544021e-04 3.30076422e-01 9.43954213e-01
    12     2.32233153e+03 2.15300871e-04 3.13120943e-01 9.49713259e-01
    13     2.40543559e+03 2.07862560e-04 3.00376739e-01 9.53820641e-01
    14     2.46537400e+03 2.02808986e-04 2.91508242e-01 9.56568317e-01
    15     2.50156951e+03 1.99874518e-04 2.86280050e-01 9.58145987e-01
    16     2.51367353e+03 1.98912068e-04 2.84552711e-01 9.58660396e-01
    17     2.50156951e+03 1.99874518e-04 2.86280050e-01 9.58145987e-01
    18     2.46537400e+03 2.02808986e-04 2.91508242e-01 9.56568317e-01
    19     2.40543559e+03 2.07862560e-04 3.00376739e-01 9.53820641e-01
    20     2.32233153e+03 2.15300871e-04 3.13120943e-01 9.49713259e-01
    21     2.21686214e+03 2.25544021e-04 3.30076422e-01 9.43954213e-01
    22     2.09004316e+03 2.39229510e-04 3.51684231e-01 9.36118690e-01
    23     1.94309592e+03 2.57321317e-04 3.78496688e-01 9.25602646e-01
    24     1.77743560e+03 2.81304144e-04 4.11182633e-01 9.11552984e-01
    25     1.59465761e+03 3.13546932e-04 4.50530815e-01 8.92760878e-01
    26     1.39652219e+03 3.58032263e-04 4.97449570e-01 8.67492896e-01
    27     1.18493750e+03 4.21963184e-04 5.52960477e-01 8.33207484e-01
    28     9.61941214e+02 5.19782282e-04 6.18183088e-01 7.86034141e-01
    29     7.29680909e+02 6.85231028e-04 6.94307415e-01 7.19678548e-01
    30     4.90393378e+02 1.01958962e-03 7.82550604e-01 6.22586984e-01
    31     2.46383091e+02 2.02936004e-03 8.84094302e-01 4.67308533e-01
PILE_L thermostat successfully initialized!

Total wall time: 0:04:34
