LAMMPS (2 Aug 2023)
Processor partition = 9
OMP_NUM_THREADS environment is not set. Defaulting to 1 thread. (src/comm.cpp:98)
  using 1 OpenMP thread(s) per MPI task
Loaded 1 plugins from /opt/deepmd-kit/lib/deepmd_lmp
clear
OMP_NUM_THREADS environment is not set. Defaulting to 1 thread. (src/comm.cpp:98)
  using 1 OpenMP thread(s) per MPI task
Loaded 1 plugins from /opt/deepmd-kit/lib/deepmd_lmp
# --------------------- VARIABLES-------------------------
variable        ibead           uloop 99 pad
variable        NSTEPS          equal 1000
variable        THERMO_FREQ     equal 1
#variable        DUMP_FREQ       equal 4000
#variable        NREPEAT         equal ${NSTEPS}/${DUMP_FREQ}
variable        TEMP            equal 300.000000
variable        TAU_T           equal 1.000000
# ---------------------- INITIALIZAITION ------------------
units           metal
boundary        p p p
atom_style      atomic
atom_modify     map yes
# --------------------- ATOM DEFINITION ------------------
read_data       /pscratch/sd/y/yifanl/Work/h2o/pimd/initial_config/conf01
Reading data file ...
  orthogonal box = (0 0 0) to (24.76926 24.76926 24.76926)
  1 by 1 by 1 MPI processor grid
  reading atoms ...
  1536 atoms
  read_data CPU = 0.005 seconds
mass            1 16.000000
mass            2 1.000000
replicate       2 2 2
Replication is creating a 2x2x2 = 8 times larger system...
  orthogonal box = (0 0 0) to (49.53852 49.53852 49.53852)
  1 by 1 by 1 MPI processor grid
  12288 atoms
  replicate CPU = 0.001 seconds
# --------------------- FORCE FIELDS ---------------------
pair_style      deepmd /pscratch/sd/y/yifanl/Work/h2o/pimd/benchmark/graph.pb
Summary of lammps deepmd module ...
  >>> Info of deepmd-kit:
  installed to:       /opt/deepmd-kit
  source:             
  source branch:      HEAD
  source commit:      5ec5eae
  source commit at:   2024-02-04 18:53:26 -0500
  support model ver.: 1.1 
  build variant:      cuda
  build with tf inc:  /opt/deepmd-kit/lib/python3.11/site-packages/tensorflow/include;/opt/deepmd-kit/include
  build with tf lib:  /opt/deepmd-kit/lib/python3.11/site-packages/tensorflow/libtensorflow_cc.so.2
  set tf intra_op_parallelism_threads: 0
  set tf inter_op_parallelism_threads: 0
  >>> Info of lammps module:
  use deepmd-kit at:  /opt/deepmd-kitpair_coeff * *
# --------------------- MD SETTINGS ----------------------
neighbor        2.0 bin
neigh_modify    every 10 delay 0 check no
timestep        0.000500
thermo          ${THERMO_FREQ}
thermo          1
thermo_style    custom step pe
#dump            1 all custom ${DUMP_FREQ} ${ibead}.xyz id type x y z
#dump_modify     1 sort id
fix 1 all pimd/langevin ensemble nvt integrator obabo temp ${TEMP} thermostat PILE_L 1234 tau ${TAU_T}
fix 1 all pimd/langevin ensemble nvt integrator obabo temp 300 thermostat PILE_L 1234 tau ${TAU_T}
fix 1 all pimd/langevin ensemble nvt integrator obabo temp 300 thermostat PILE_L 1234 tau 1
# --------------------- RUN ------------------------------
run             ${NSTEPS}
run             1000

CITE-CITE-CITE-CITE-CITE-CITE-CITE-CITE-CITE-CITE-CITE-CITE-CITE

Your simulation uses code contributions which should be cited:

- USER-DEEPMD package:

@article{Wang_ComputPhysCommun_2018_v228_p178,
  author = {Wang, Han and Zhang, Linfeng and Han, Jiequn and E, Weinan},
  doi = {10.1016/j.cpc.2018.03.016},
  url = {https://doi.org/10.1016/j.cpc.2018.03.016},
  year = 2018,
  month = {jul},
  publisher = {Elsevier {BV}},
  volume = 228,
  journal = {Comput. Phys. Commun.},
  title = {{DeePMD-kit: A deep learning package for many-body potential energy representation and molecular dynamics}},
  pages = {178--184}
}
@misc{Zeng_JChemPhys_2023_v159_p054801,
  title  = {{DeePMD-kit v2: A software package for deep potential models}},
  author =   {Jinzhe Zeng and Duo Zhang and Denghui Lu and Pinghui Mo and Zeyu Li
         and Yixiao Chen and Mari{\'a}n Rynik and Li'ang Huang and Ziyao Li and 
         Shaochen Shi and Yingze Wang and Haotian Ye and Ping Tuo and Jiabin
         Yang and Ye Ding and Yifan Li and Davide Tisi and Qiyu Zeng and Han 
         Bao and Yu Xia and Jiameng Huang and Koki Muraoka and Yibo Wang and 
         Junhan Chang and Fengbo Yuan and Sigbj{\o}rn L{\o}land Bore and Chun
         Cai and Yinnian Lin and Bo Wang and Jiayan Xu and Jia-Xin Zhu and 
         Chenxing Luo and Yuzhi Zhang and Rhys E A Goodall and Wenshuo Liang
         and Anurag Kumar Singh and Sikai Yao and Jingchao Zhang and Renata
         Wentzcovitch and Jiequn Han and Jie Liu and Weile Jia and Darrin M
         York and Weinan E and Roberto Car and Linfeng Zhang and Han Wang},
  journal =  {J. Chem. Phys.},
  volume =   159,
  issue =    5,  
  year =    2023,
  pages  =   054801,
  doi =      {10.1063/5.0155600},
}

CITE-CITE-CITE-CITE-CITE-CITE-CITE-CITE-CITE-CITE-CITE-CITE-CITE

Generated 0 of 1 mixed pair_coeff terms from geometric mixing rule

Initializing PI Langevin equation thermostat...
Bead ID    |    omega    |    tau    |    c1    |    c2
    0     0.00000000e+00 1.00000000e+00 9.99750031e-01 2.23578850e-02
    1     2.46383091e+02 2.02936004e-03 8.84094302e-01 4.67308533e-01
    2     4.90393378e+02 1.01958962e-03 7.82550604e-01 6.22586984e-01
    3     7.29680909e+02 6.85231028e-04 6.94307415e-01 7.19678548e-01
    4     9.61941214e+02 5.19782282e-04 6.18183088e-01 7.86034141e-01
    5     1.18493750e+03 4.21963184e-04 5.52960477e-01 8.33207484e-01
    6     1.39652219e+03 3.58032263e-04 4.97449570e-01 8.67492896e-01
    7     1.59465761e+03 3.13546932e-04 4.50530815e-01 8.92760878e-01
    8     1.77743560e+03 2.81304144e-04 4.11182633e-01 9.11552984e-01
    9     1.94309592e+03 2.57321317e-04 3.78496688e-01 9.25602646e-01
    10     2.09004316e+03 2.39229510e-04 3.51684231e-01 9.36118690e-01
    11     2.21686214e+03 2.25544021e-04 3.30076422e-01 9.43954213e-01
    12     2.32233153e+03 2.15300871e-04 3.13120943e-01 9.49713259e-01
    13     2.40543559e+03 2.07862560e-04 3.00376739e-01 9.53820641e-01
    14     2.46537400e+03 2.02808986e-04 2.91508242e-01 9.56568317e-01
    15     2.50156951e+03 1.99874518e-04 2.86280050e-01 9.58145987e-01
    16     2.51367353e+03 1.98912068e-04 2.84552711e-01 9.58660396e-01
    17     2.50156951e+03 1.99874518e-04 2.86280050e-01 9.58145987e-01
    18     2.46537400e+03 2.02808986e-04 2.91508242e-01 9.56568317e-01
    19     2.40543559e+03 2.07862560e-04 3.00376739e-01 9.53820641e-01
    20     2.32233153e+03 2.15300871e-04 3.13120943e-01 9.49713259e-01
    21     2.21686214e+03 2.25544021e-04 3.30076422e-01 9.43954213e-01
    22     2.09004316e+03 2.39229510e-04 3.51684231e-01 9.36118690e-01
    23     1.94309592e+03 2.57321317e-04 3.78496688e-01 9.25602646e-01
    24     1.77743560e+03 2.81304144e-04 4.11182633e-01 9.11552984e-01
    25     1.59465761e+03 3.13546932e-04 4.50530815e-01 8.92760878e-01
    26     1.39652219e+03 3.58032263e-04 4.97449570e-01 8.67492896e-01
    27     1.18493750e+03 4.21963184e-04 5.52960477e-01 8.33207484e-01
    28     9.61941214e+02 5.19782282e-04 6.18183088e-01 7.86034141e-01
    29     7.29680909e+02 6.85231028e-04 6.94307415e-01 7.19678548e-01
    30     4.90393378e+02 1.01958962e-03 7.82550604e-01 6.22586984e-01
    31     2.46383091e+02 2.02936004e-03 8.84094302e-01 4.67308533e-01
PILE_L thermostat successfully initialized!

Neighbor list info ...
  update: every = 10 steps, delay = 0 steps, check = no
  max neighbors/atom: 2000, page size: 100000
  master list distance cutoff = 8
  ghost atom cutoff = 8
  binsize = 4, bins = 13 13 13
  1 neighbor lists, perpetual/occasional/extra = 1 0 0
  (1) pair deepmd, perpetual
      attributes: full, newton on
      pair build: full/bin/atomonly
      stencil: full/bin/3d
      bin: standard
Per MPI rank memory allocation (min/avg/max) = 15.5 | 15.5 | 15.5 Mbytes
   Step         PotEng    
         0  -1914325.3    
         1  -1914103      
         2  -1913925.2    
         3  -1913802.5    
         4  -1913720.3    
         5  -1913660.2    
         6  -1913595.8    
         7  -1913528.9    
         8  -1913489.6    
         9  -1913458.6    
        10  -1913441      
        11  -1913471.2    
        12  -1913495.9    
        13  -1913515      
        14  -1913508.4    
        15  -1913512.9    
        16  -1913487.9    
        17  -1913467.2    
        18  -1913461.6    
        19  -1913447.9    
        20  -1913464.5    
        21  -1913501.6    
        22  -1913512.6    
        23  -1913537.3    
        24  -1913555.3    
        25  -1913538.3    
        26  -1913532.2    
        27  -1913537.9    
        28  -1913514.4    
        29  -1913509.7    
        30  -1913526.3    
        31  -1913540.4    
        32  -1913546.1    
        33  -1913548.7    
        34  -1913522.1    
        35  -1913502.7    
        36  -1913488.5    
        37  -1913488      
        38  -1913454.4    
        39  -1913445.6    
        40  -1913448.8    
        41  -1913456      
        42  -1913478.6    
        43  -1913475      
        44  -1913503.8    
        45  -1913499.6    
        46  -1913497.9    
        47  -1913479.3    
        48  -1913471.8    
        49  -1913477.8    
        50  -1913489.5    
        51  -1913485.5    
        52  -1913481.9    
        53  -1913482.2    
        54  -1913469.2    
        55  -1913480.8    
        56  -1913462.5    
        57  -1913453.4    
        58  -1913451.1    
        59  -1913463.9    
        60  -1913460.8    
        61  -1913457.3    
        62  -1913460.4    
        63  -1913477.4    
        64  -1913498.3    
        65  -1913511.9    
        66  -1913526.9    
        67  -1913527.4    
        68  -1913523.2    
        69  -1913524.9    
        70  -1913518.1    
        71  -1913503      
        72  -1913494.4    
        73  -1913492.4    
        74  -1913483.4    
        75  -1913494.4    
        76  -1913504.5    
        77  -1913499.2    
        78  -1913475.4    
        79  -1913480.8    
        80  -1913477.1    
        81  -1913469.7    
        82  -1913500.8    
        83  -1913494.9    
        84  -1913492.8    
        85  -1913484.4    
        86  -1913496.3    
        87  -1913477.4    
        88  -1913483.6    
        89  -1913506      
        90  -1913508.4    
        91  -1913513.9    
        92  -1913503.7    
        93  -1913488.2    
        94  -1913485.3    
        95  -1913478.2    
        96  -1913484.3    
        97  -1913493.4    
        98  -1913497.9    
        99  -1913489.1    
       100  -1913474.5    
       101  -1913476.5    
       102  -1913476.1    
       103  -1913463.5    
       104  -1913464.2    
       105  -1913462.4    
       106  -1913465.1    
       107  -1913457.1    
       108  -1913461.3    
       109  -1913481.1    
       110  -1913498.1    
       111  -1913496.6    
       112  -1913497      
       113  -1913483.1    
       114  -1913496.5    
       115  -1913492.8    
       116  -1913477.4    
       117  -1913463.3    
       118  -1913451.1    
       119  -1913452.3    
       120  -1913451.5    
       121  -1913447      
       122  -1913469.5    
       123  -1913476      
       124  -1913467.8    
       125  -1913464.3    
       126  -1913461.7    
       127  -1913460.6    
       128  -1913448.2    
       129  -1913466.4    
       130  -1913478.8    
       131  -1913487.4    
       132  -1913499.5    
       133  -1913497.5    
       134  -1913491.8    
       135  -1913482.9    
       136  -1913505      
       137  -1913505.7    
       138  -1913502.1    
       139  -1913475.9    
       140  -1913471.6    
       141  -1913466.8    
       142  -1913463.6    
       143  -1913464.2    
       144  -1913461.9    
       145  -1913475.2    
       146  -1913475.2    
       147  -1913471.4    
       148  -1913474.5    
       149  -1913466.9    
       150  -1913485.2    
       151  -1913484.9    
       152  -1913489.5    
       153  -1913506.1    
       154  -1913504.2    
       155  -1913512.9    
       156  -1913482.5    
       157  -1913452.1    
       158  -1913456.5    
       159  -1913438      
       160  -1913430.2    
       161  -1913463.9    
       162  -1913458.9    
       163  -1913480.7    
       164  -1913482.4    
       165  -1913465.2    
       166  -1913460.1    
       167  -1913480.6    
       168  -1913481.6    
       169  -1913483.4    
       170  -1913499.7    
       171  -1913507.1    
       172  -1913493.5    
       173  -1913485.1    
       174  -1913470.7    
       175  -1913460.5    
       176  -1913472.2    
       177  -1913482.5    
       178  -1913481.8    
       179  -1913481.1    
       180  -1913498.1    
       181  -1913481.4    
       182  -1913468.9    
       183  -1913460.1    
       184  -1913470.5    
       185  -1913480.3    
       186  -1913488.2    
       187  -1913477.2    
       188  -1913475.2    
       189  -1913474.9    
       190  -1913485.8    
       191  -1913470.1    
       192  -1913472.4    
       193  -1913478.2    
       194  -1913477      
       195  -1913507.6    
       196  -1913509.3    
       197  -1913512.1    
       198  -1913490.8    
       199  -1913481.3    
       200  -1913478.7    
       201  -1913473.5    
       202  -1913473.2    
       203  -1913467.1    
       204  -1913473.3    
       205  -1913486.3    
       206  -1913472.7    
       207  -1913479      
       208  -1913484.6    
       209  -1913464.6    
       210  -1913448.7    
       211  -1913446.7    
       212  -1913475.4    
       213  -1913477.3    
       214  -1913470      
       215  -1913478.4    
       216  -1913453.9    
       217  -1913447      
       218  -1913455.4    
       219  -1913455      
       220  -1913460.6    
       221  -1913464.6    
       222  -1913470.7    
       223  -1913474.6    
       224  -1913491.4    
       225  -1913485.5    
       226  -1913472.2    
       227  -1913467.9    
       228  -1913484.5    
       229  -1913488.8    
       230  -1913491.8    
       231  -1913485.8    
       232  -1913472.5    
       233  -1913474.2    
       234  -1913470.8    
       235  -1913468.2    
       236  -1913472.2    
       237  -1913484.9    
       238  -1913473.1    
       239  -1913474.7    
       240  -1913480.4    
       241  -1913499.9    
       242  -1913471.2    
       243  -1913460.5    
       244  -1913452.8    
       245  -1913471.5    
       246  -1913478.4    
       247  -1913484.9    
       248  -1913487.7    
       249  -1913502.5    
       250  -1913490.6    
       251  -1913458.6    
       252  -1913456.1    
       253  -1913466.3    
       254  -1913452.9    
       255  -1913456.8    
       256  -1913465.1    
       257  -1913467.4    
       258  -1913464.9    
       259  -1913448.3    
       260  -1913464.9    
       261  -1913461.1    
       262  -1913434.2    
       263  -1913446.3    
       264  -1913447.9    
       265  -1913454.5    
       266  -1913466      
       267  -1913477.1    
       268  -1913471      
       269  -1913477      
       270  -1913475.6    
       271  -1913473.6    
       272  -1913479.8    
       273  -1913474.6    
       274  -1913455.2    
       275  -1913463      
       276  -1913476.2    
       277  -1913464.3    
       278  -1913459.8    
       279  -1913458.3    
       280  -1913443.7    
       281  -1913454.1    
       282  -1913449      
       283  -1913469.6    
       284  -1913470.5    
       285  -1913469.4    
       286  -1913454.1    
       287  -1913444.5    
       288  -1913447.5    
       289  -1913458.6    
       290  -1913447      
       291  -1913455.2    
       292  -1913449.1    
       293  -1913464.9    
       294  -1913458      
       295  -1913460.1    
       296  -1913448.8    
       297  -1913449.9    
       298  -1913450.9    
       299  -1913447.3    
       300  -1913467.9    
       301  -1913463.5    
       302  -1913485.4    
       303  -1913485.5    
       304  -1913469.4    
       305  -1913471.1    
       306  -1913434      
       307  -1913460.1    
       308  -1913459.2    
       309  -1913479.2    
       310  -1913475.8    
       311  -1913453.4    
       312  -1913457.9    
       313  -1913465      
       314  -1913464.7    
       315  -1913458.1    
       316  -1913452.5    
       317  -1913439.1    
       318  -1913438.4    
       319  -1913447.8    
       320  -1913457.8    
       321  -1913471.7    
       322  -1913476.5    
       323  -1913454.3    
       324  -1913457.8    
       325  -1913459.2    
       326  -1913482.4    
       327  -1913468.6    
       328  -1913449      
       329  -1913440      
       330  -1913434.8    
       331  -1913430.3    
       332  -1913454.8    
       333  -1913457.9    
       334  -1913467      
       335  -1913451.2    
       336  -1913445.5    
       337  -1913449.5    
       338  -1913438.7    
       339  -1913444.2    
       340  -1913457.1    
       341  -1913465.7    
       342  -1913451.6    
       343  -1913449.8    
       344  -1913444.6    
       345  -1913441.1    
       346  -1913453      
       347  -1913449.8    
       348  -1913431.7    
       349  -1913434.6    
       350  -1913446.8    
       351  -1913449.8    
       352  -1913442.3    
       353  -1913455.1    
       354  -1913449.5    
       355  -1913448      
       356  -1913450.8    
       357  -1913437.8    
       358  -1913451      
       359  -1913471.2    
       360  -1913450.7    
       361  -1913445.6    
       362  -1913438.2    
       363  -1913442.5    
       364  -1913460.8    
       365  -1913470.8    
       366  -1913457.7    
       367  -1913440.6    
       368  -1913428.2    
       369  -1913435.1    
       370  -1913440.2    
       371  -1913452.5    
       372  -1913454.1    
       373  -1913460      
       374  -1913455.9    
       375  -1913450.4    
       376  -1913449.3    
       377  -1913456.6    
       378  -1913452.7    
       379  -1913448.4    
       380  -1913455.6    
       381  -1913427.3    
       382  -1913422.6    
       383  -1913417.5    
       384  -1913423.4    
       385  -1913433.5    
       386  -1913447.8    
       387  -1913460.5    
       388  -1913457.5    
       389  -1913478.5    
       390  -1913462.1    
       391  -1913434.2    
       392  -1913431.4    
       393  -1913435      
       394  -1913448.2    
       395  -1913454      
       396  -1913436.9    
       397  -1913428      
       398  -1913415.2    
       399  -1913419      
       400  -1913438.1    
       401  -1913437.3    
       402  -1913439      
       403  -1913433      
       404  -1913428.9    
       405  -1913443.9    
       406  -1913431.1    
       407  -1913448.1    
       408  -1913439.7    
       409  -1913453.5    
       410  -1913468.6    
       411  -1913462.4    
       412  -1913457.6    
       413  -1913458.4    
       414  -1913461.1    
       415  -1913461.4    
       416  -1913457.1    
       417  -1913462.7    
       418  -1913450.6    
       419  -1913440.9    
       420  -1913446.5    
       421  -1913463.3    
       422  -1913468.9    
       423  -1913475.1    
       424  -1913437.9    
       425  -1913437.3    
       426  -1913432.8    
       427  -1913451.2    
       428  -1913432.9    
       429  -1913449.6    
       430  -1913443.1    
       431  -1913451.9    
       432  -1913447.9    
       433  -1913464.6    
       434  -1913454.7    
       435  -1913446.8    
       436  -1913444.9    
       437  -1913452      
       438  -1913450.1    
       439  -1913449.4    
       440  -1913456.7    
       441  -1913458.1    
       442  -1913439.9    
       443  -1913425.3    
       444  -1913450.8    
       445  -1913452.9    
       446  -1913462.1    
       447  -1913463.8    
       448  -1913461.3    
       449  -1913454.6    
       450  -1913452.5    
       451  -1913466.3    
       452  -1913453.5    
       453  -1913447.4    
       454  -1913459.5    
       455  -1913468.5    
       456  -1913470.8    
       457  -1913464.4    
       458  -1913451.6    
       459  -1913444.6    
       460  -1913463.5    
       461  -1913463.8    
       462  -1913455.9    
       463  -1913446.1    
       464  -1913445.2    
       465  -1913452.8    
       466  -1913469.7    
       467  -1913461.3    
       468  -1913459.9    
       469  -1913454      
       470  -1913436.3    
       471  -1913440.3    
       472  -1913437.3    
       473  -1913432.3    
       474  -1913422.9    
       475  -1913422.5    
       476  -1913428.8    
       477  -1913441.2    
       478  -1913433.5    
       479  -1913424.1    
       480  -1913433.4    
       481  -1913424.9    
       482  -1913444.3    
       483  -1913436.3    
       484  -1913434.7    
       485  -1913425.7    
       486  -1913435.2    
       487  -1913429.9    
       488  -1913425.4    
       489  -1913423.1    
       490  -1913430.6    
       491  -1913427.4    
       492  -1913444.4    
       493  -1913437.1    
       494  -1913431.4    
       495  -1913423.6    
       496  -1913442.4    
       497  -1913442.7    
       498  -1913423.1    
       499  -1913404.3    
       500  -1913414.9    
       501  -1913426.8    
       502  -1913426.4    
       503  -1913422.3    
       504  -1913435.6    
       505  -1913449.8    
       506  -1913432.5    
       507  -1913426.3    
       508  -1913429.3    
       509  -1913434.7    
       510  -1913418.4    
       511  -1913412.6    
       512  -1913402.5    
       513  -1913412.9    
       514  -1913435.6    
       515  -1913435.7    
       516  -1913443.4    
       517  -1913439.8    
       518  -1913432.7    
       519  -1913431.8    
       520  -1913439.1    
       521  -1913452.8    
       522  -1913448.3    
       523  -1913447.8    
       524  -1913440.5    
       525  -1913432.8    
       526  -1913431.5    
       527  -1913433.1    
       528  -1913422.4    
       529  -1913438.2    
       530  -1913434.8    
       531  -1913450.2    
       532  -1913435.5    
       533  -1913416.6    
       534  -1913422.2    
       535  -1913402.5    
       536  -1913424.8    
       537  -1913429.4    
       538  -1913458.8    
       539  -1913438.5    
       540  -1913448.3    
       541  -1913444.7    
       542  -1913435.5    
       543  -1913428.3    
       544  -1913433      
       545  -1913424.4    
       546  -1913434.9    
       547  -1913430.6    
       548  -1913437.9    
       549  -1913440.5    
       550  -1913442.2    
       551  -1913439.6    
       552  -1913426.1    
       553  -1913430.2    
       554  -1913433.1    
       555  -1913449.8    
       556  -1913424.3    
       557  -1913441.5    
       558  -1913446.4    
       559  -1913441      
       560  -1913439.5    
       561  -1913452      
       562  -1913455.1    
       563  -1913464.5    
       564  -1913463.8    
       565  -1913455.5    
       566  -1913448      
       567  -1913444.6    
       568  -1913431.8    
       569  -1913439.1    
       570  -1913453.7    
       571  -1913451.3    
       572  -1913457.5    
       573  -1913452.8    
       574  -1913437.9    
       575  -1913434.5    
       576  -1913441.7    
       577  -1913460.3    
       578  -1913434.8    
       579  -1913434.6    
       580  -1913431.3    
       581  -1913435.9    
       582  -1913450.8    
       583  -1913449.1    
       584  -1913429.1    
       585  -1913408.8    
       586  -1913408.3    
       587  -1913421.6    
       588  -1913454.3    
       589  -1913454.3    
       590  -1913439.9    
       591  -1913424.9    
       592  -1913423.4    
       593  -1913423      
       594  -1913416.6    
       595  -1913421.8    
       596  -1913433.4    
       597  -1913436      
       598  -1913462.8    
       599  -1913461.7    
       600  -1913460      
       601  -1913463.6    
       602  -1913449.3    
       603  -1913430.6    
       604  -1913444.2    
       605  -1913446.5    
       606  -1913443.4    
       607  -1913453.5    
       608  -1913455.7    
       609  -1913452.2    
       610  -1913470.9    
       611  -1913469.2    
       612  -1913464.8    
       613  -1913462.6    
       614  -1913458.6    
       615  -1913446.9    
       616  -1913445.4    
       617  -1913442.8    
       618  -1913458.4    
       619  -1913454.8    
       620  -1913443.8    
       621  -1913453.6    
       622  -1913428.8    
       623  -1913417.9    
       624  -1913436.4    
       625  -1913451.5    
       626  -1913437.2    
       627  -1913442.1    
       628  -1913459.9    
       629  -1913450.2    
       630  -1913461.3    
       631  -1913440.5    
       632  -1913433.6    
       633  -1913425.2    
       634  -1913425.7    
       635  -1913433.1    
       636  -1913420      
       637  -1913423.6    
       638  -1913439.2    
       639  -1913454.6    
       640  -1913454.2    
       641  -1913465      
       642  -1913462.8    
       643  -1913439.4    
       644  -1913424.9    
       645  -1913405.8    
       646  -1913412.4    
       647  -1913408.9    
       648  -1913424      
       649  -1913424.9    
       650  -1913433.6    
       651  -1913439.9    
       652  -1913431.6    
       653  -1913448.9    
       654  -1913447.3    
       655  -1913450.8    
       656  -1913435      
       657  -1913426.5    
       658  -1913430.8    
       659  -1913432.6    
       660  -1913431.6    
       661  -1913450.3    
       662  -1913457.4    
       663  -1913442.6    
       664  -1913429.3    
       665  -1913420.2    
       666  -1913417.6    
       667  -1913444.5    
       668  -1913440.1    
       669  -1913419.8    
       670  -1913426.8    
       671  -1913437.8    
       672  -1913437.7    
       673  -1913438.6    
       674  -1913442.9    
       675  -1913447.1    
       676  -1913437.7    
       677  -1913423.2    
       678  -1913442.6    
       679  -1913425.6    
       680  -1913413.5    
       681  -1913417.3    
       682  -1913400.8    
       683  -1913424.3    
       684  -1913414.2    
       685  -1913427.8    
       686  -1913438.9    
       687  -1913442.2    
       688  -1913420.7    
       689  -1913440.7    
       690  -1913443.4    
       691  -1913424.3    
       692  -1913436.1    
       693  -1913428.2    
       694  -1913432.4    
       695  -1913431.3    
       696  -1913430.6    
       697  -1913446      
       698  -1913456.4    
       699  -1913443.7    
       700  -1913435.4    
       701  -1913425.7    
       702  -1913429.8    
       703  -1913441.6    
       704  -1913436.1    
       705  -1913444.1    
       706  -1913436.4    
       707  -1913449.3    
       708  -1913466.8    
       709  -1913448.7    
       710  -1913445.8    
       711  -1913437.5    
       712  -1913425.3    
       713  -1913400.8    
       714  -1913399      
       715  -1913400      
       716  -1913412.6    
       717  -1913405      
       718  -1913421.7    
       719  -1913424.7    
       720  -1913442.2    
       721  -1913448      
       722  -1913422.5    
       723  -1913426.1    
       724  -1913416.9    
       725  -1913408.9    
       726  -1913435.3    
       727  -1913440.1    
       728  -1913428.5    
       729  -1913426.1    
       730  -1913420.9    
       731  -1913406.5    
       732  -1913402.3    
       733  -1913413.9    
       734  -1913411.4    
       735  -1913421.9    
       736  -1913428.9    
       737  -1913442.6    
       738  -1913440.7    
       739  -1913451.7    
       740  -1913483.5    
       741  -1913466.8    
       742  -1913437.8    
       743  -1913457.4    
       744  -1913456.8    
       745  -1913449.2    
       746  -1913445.1    
       747  -1913432.4    
       748  -1913425.1    
       749  -1913433.7    
       750  -1913440.9    
       751  -1913423.7    
       752  -1913435      
       753  -1913437.1    
       754  -1913423.8    
       755  -1913423.3    
       756  -1913425.8    
       757  -1913428.8    
       758  -1913426.2    
       759  -1913434.1    
       760  -1913435.9    
       761  -1913421.3    
       762  -1913419.3    
       763  -1913412.7    
       764  -1913432.7    
       765  -1913452.6    
       766  -1913464.8    
       767  -1913450.8    
       768  -1913442.9    
       769  -1913440.3    
       770  -1913450.8    
       771  -1913435.9    
       772  -1913440.7    
       773  -1913416.2    
       774  -1913417.9    
       775  -1913407.5    
       776  -1913421.6    
       777  -1913440.9    
       778  -1913429.2    
       779  -1913414.1    
       780  -1913417.2    
       781  -1913412.2    
       782  -1913423.1    
       783  -1913424.7    
       784  -1913423.2    
       785  -1913428.9    
       786  -1913447      
       787  -1913439.2    
       788  -1913422.6    
       789  -1913401.3    
       790  -1913413.8    
       791  -1913435.7    
       792  -1913432.1    
       793  -1913408.6    
       794  -1913394.3    
       795  -1913414.8    
       796  -1913424.1    
       797  -1913428.1    
       798  -1913426.5    
       799  -1913422.9    
       800  -1913439.6    
       801  -1913435.7    
       802  -1913434      
       803  -1913436.3    
       804  -1913443.9    
       805  -1913445.4    
       806  -1913439.3    
       807  -1913419.9    
       808  -1913419.2    
       809  -1913436      
       810  -1913438.3    
       811  -1913430.5    
       812  -1913441.1    
       813  -1913434.8    
       814  -1913427.8    
       815  -1913451.9    
       816  -1913439      
       817  -1913429.3    
       818  -1913433.1    
       819  -1913438.2    
       820  -1913445.2    
       821  -1913435.3    
       822  -1913420.9    
       823  -1913420.2    
       824  -1913420.3    
       825  -1913416      
       826  -1913413.7    
       827  -1913430.8    
       828  -1913443.5    
       829  -1913445.8    
       830  -1913435.6    
       831  -1913431.6    
       832  -1913420.4    
       833  -1913420.4    
       834  -1913414.9    
       835  -1913402.8    
       836  -1913383.5    
       837  -1913390.4    
       838  -1913397.4    
       839  -1913412.9    
       840  -1913428.3    
       841  -1913396      
       842  -1913386.7    
       843  -1913405.4    
       844  -1913414.5    
       845  -1913408.9    
       846  -1913408      
       847  -1913419.9    
       848  -1913430.6    
       849  -1913425.4    
       850  -1913401.2    
       851  -1913408.9    
       852  -1913424.3    
       853  -1913425.3    
       854  -1913433.6    
       855  -1913450.2    
       856  -1913426.8    
       857  -1913425.7    
       858  -1913431.7    
       859  -1913424.6    
       860  -1913426      
       861  -1913421.4    
       862  -1913426.8    
       863  -1913432.5    
       864  -1913429.8    
       865  -1913425.8    
       866  -1913417.1    
       867  -1913402.7    
       868  -1913405.5    
       869  -1913382.2    
       870  -1913380.7    
       871  -1913398.4    
       872  -1913416.1    
       873  -1913411.1    
       874  -1913411.2    
       875  -1913396.9    
       876  -1913407.3    
       877  -1913408.5    
       878  -1913412      
       879  -1913411.4    
       880  -1913411      
       881  -1913406      
       882  -1913414.2    
       883  -1913416.8    
       884  -1913420      
       885  -1913441.4    
       886  -1913408.7    
       887  -1913397.5    
       888  -1913413.3    
       889  -1913417.2    
       890  -1913422.8    
       891  -1913426      
       892  -1913428.6    
       893  -1913409.5    
       894  -1913418.3    
       895  -1913412.5    
       896  -1913403.8    
       897  -1913396.4    
       898  -1913400.9    
       899  -1913409.9    
       900  -1913405.8    
       901  -1913429.2    
       902  -1913425.8    
       903  -1913423.6    
       904  -1913408.4    
       905  -1913415      
       906  -1913416.8    
       907  -1913414.3    
       908  -1913406.5    
       909  -1913417.5    
       910  -1913415.8    
       911  -1913418.7    
       912  -1913433.8    
       913  -1913439.8    
       914  -1913442.3    
       915  -1913431.7    
       916  -1913420.4    
       917  -1913429.8    
       918  -1913435.9    
       919  -1913419.8    
       920  -1913433.2    
       921  -1913447.7    
       922  -1913448.3    
       923  -1913437.8    
       924  -1913438.5    
       925  -1913435.2    
       926  -1913417.3    
       927  -1913408.1    
       928  -1913414.4    
       929  -1913426.5    
       930  -1913420.9    
       931  -1913424.2    
       932  -1913428.6    
       933  -1913424.4    
       934  -1913415.6    
       935  -1913421.9    
       936  -1913423.2    
       937  -1913423      
       938  -1913410.7    
       939  -1913407.3    
       940  -1913420.9    
       941  -1913419      
       942  -1913417.9    
       943  -1913406.2    
       944  -1913424.4    
       945  -1913414.2    
       946  -1913404.4    
       947  -1913387.2    
       948  -1913396.5    
       949  -1913404.7    
       950  -1913406.2    
       951  -1913411.4    
       952  -1913397.4    
       953  -1913388.2    
       954  -1913381.5    
       955  -1913385.5    
       956  -1913388.9    
       957  -1913409.7    
       958  -1913433.8    
       959  -1913441      
       960  -1913438.7    
       961  -1913441.3    
       962  -1913410      
       963  -1913409.5    
       964  -1913405.2    
       965  -1913414.8    
       966  -1913415      
       967  -1913401.8    
       968  -1913410.7    
       969  -1913418      
       970  -1913424.4    
       971  -1913406.6    
       972  -1913415.8    
       973  -1913412.3    
       974  -1913414.4    
       975  -1913415.9    
       976  -1913413.7    
       977  -1913409.5    
       978  -1913421.6    
       979  -1913418.2    
       980  -1913417.8    
       981  -1913414.1    
       982  -1913412.7    
       983  -1913399.5    
       984  -1913417.4    
       985  -1913399.8    
       986  -1913406      
       987  -1913400      
       988  -1913401.6    
       989  -1913417.2    
       990  -1913402.5    
       991  -1913412.7    
       992  -1913440.5    
       993  -1913429.1    
       994  -1913438      
       995  -1913432.2    
       996  -1913428.1    
       997  -1913414.5    
       998  -1913422.7    
       999  -1913425.5    
      1000  -1913424.9    
Loop time of 219.836 on 1 procs for 1000 steps with 12288 atoms

Performance: 0.197 ns/day, 122.131 hours/ns, 4.549 timesteps/s, 55.896 katom-step/s
100.6% CPU use with 1 MPI tasks x 1 OpenMP threads

MPI task timing breakdown:
Section |  min time  |  avg time  |  max time  |%varavg| %total
---------------------------------------------------------------
Pair    | 58.791     | 58.791     | 58.791     |   0.0 | 26.74
Neigh   | 6.3014     | 6.3014     | 6.3014     |   0.0 |  2.87
Comm    | 0.11022    | 0.11022    | 0.11022    |   0.0 |  0.05
Output  | 0.022252   | 0.022252   | 0.022252   |   0.0 |  0.01
Modify  | 154.56     | 154.56     | 154.56     |   0.0 | 70.31
Other   |            | 0.05153    |            |       |  0.02

Nlocal:          12288 ave       12288 max       12288 min
Histogram: 1 0 0 0 0 0 0 0 0 0
Nghost:          15865 ave       15865 max       15865 min
Histogram: 1 0 0 0 0 0 0 0 0 0
Neighs:              0 ave           0 max           0 min
Histogram: 1 0 0 0 0 0 0 0 0 0
FullNghs:  2.65484e+06 ave 2.65484e+06 max 2.65484e+06 min
Histogram: 1 0 0 0 0 0 0 0 0 0

Total # of neighbors = 2654842
Ave neighs/atom = 216.0516
Neighbor list builds = 100
Dangerous builds not checked
write_data      final.${ibead}
write_data      final.10
System init for write_data ...
Generated 0 of 1 mixed pair_coeff terms from geometric mixing rule

Initializing PI Langevin equation thermostat...
Bead ID    |    omega    |    tau    |    c1    |    c2
    0     0.00000000e+00 1.00000000e+00 9.99750031e-01 2.23578850e-02
    1     2.46383091e+02 2.02936004e-03 8.84094302e-01 4.67308533e-01
    2     4.90393378e+02 1.01958962e-03 7.82550604e-01 6.22586984e-01
    3     7.29680909e+02 6.85231028e-04 6.94307415e-01 7.19678548e-01
    4     9.61941214e+02 5.19782282e-04 6.18183088e-01 7.86034141e-01
    5     1.18493750e+03 4.21963184e-04 5.52960477e-01 8.33207484e-01
    6     1.39652219e+03 3.58032263e-04 4.97449570e-01 8.67492896e-01
    7     1.59465761e+03 3.13546932e-04 4.50530815e-01 8.92760878e-01
    8     1.77743560e+03 2.81304144e-04 4.11182633e-01 9.11552984e-01
    9     1.94309592e+03 2.57321317e-04 3.78496688e-01 9.25602646e-01
    10     2.09004316e+03 2.39229510e-04 3.51684231e-01 9.36118690e-01
    11     2.21686214e+03 2.25544021e-04 3.30076422e-01 9.43954213e-01
    12     2.32233153e+03 2.15300871e-04 3.13120943e-01 9.49713259e-01
    13     2.40543559e+03 2.07862560e-04 3.00376739e-01 9.53820641e-01
    14     2.46537400e+03 2.02808986e-04 2.91508242e-01 9.56568317e-01
    15     2.50156951e+03 1.99874518e-04 2.86280050e-01 9.58145987e-01
    16     2.51367353e+03 1.98912068e-04 2.84552711e-01 9.58660396e-01
    17     2.50156951e+03 1.99874518e-04 2.86280050e-01 9.58145987e-01
    18     2.46537400e+03 2.02808986e-04 2.91508242e-01 9.56568317e-01
    19     2.40543559e+03 2.07862560e-04 3.00376739e-01 9.53820641e-01
    20     2.32233153e+03 2.15300871e-04 3.13120943e-01 9.49713259e-01
    21     2.21686214e+03 2.25544021e-04 3.30076422e-01 9.43954213e-01
    22     2.09004316e+03 2.39229510e-04 3.51684231e-01 9.36118690e-01
    23     1.94309592e+03 2.57321317e-04 3.78496688e-01 9.25602646e-01
    24     1.77743560e+03 2.81304144e-04 4.11182633e-01 9.11552984e-01
    25     1.59465761e+03 3.13546932e-04 4.50530815e-01 8.92760878e-01
    26     1.39652219e+03 3.58032263e-04 4.97449570e-01 8.67492896e-01
    27     1.18493750e+03 4.21963184e-04 5.52960477e-01 8.33207484e-01
    28     9.61941214e+02 5.19782282e-04 6.18183088e-01 7.86034141e-01
    29     7.29680909e+02 6.85231028e-04 6.94307415e-01 7.19678548e-01
    30     4.90393378e+02 1.01958962e-03 7.82550604e-01 6.22586984e-01
    31     2.46383091e+02 2.02936004e-03 8.84094302e-01 4.67308533e-01
PILE_L thermostat successfully initialized!

Total wall time: 0:04:34
