LAMMPS (2 Aug 2023)
Processor partition = 6
OMP_NUM_THREADS environment is not set. Defaulting to 1 thread. (src/comm.cpp:98)
  using 1 OpenMP thread(s) per MPI task
Loaded 1 plugins from /opt/deepmd-kit/lib/deepmd_lmp
clear
OMP_NUM_THREADS environment is not set. Defaulting to 1 thread. (src/comm.cpp:98)
  using 1 OpenMP thread(s) per MPI task
Loaded 1 plugins from /opt/deepmd-kit/lib/deepmd_lmp
# --------------------- VARIABLES-------------------------
variable        ibead           uloop 99 pad
variable        NSTEPS          equal 1000
variable        THERMO_FREQ     equal 1
#variable        DUMP_FREQ       equal 4000
#variable        NREPEAT         equal ${NSTEPS}/${DUMP_FREQ}
variable        TEMP            equal 300.000000
variable        TAU_T           equal 1.000000
# ---------------------- INITIALIZAITION ------------------
units           metal
boundary        p p p
atom_style      atomic
atom_modify     map yes
# --------------------- ATOM DEFINITION ------------------
read_data       /pscratch/sd/y/yifanl/Work/h2o/pimd/initial_config/conf01
Reading data file ...
  orthogonal box = (0 0 0) to (24.76926 24.76926 24.76926)
  1 by 1 by 1 MPI processor grid
  reading atoms ...
  1536 atoms
  read_data CPU = 0.005 seconds
mass            1 16.000000
mass            2 1.000000
replicate       2 2 2
Replication is creating a 2x2x2 = 8 times larger system...
  orthogonal box = (0 0 0) to (49.53852 49.53852 49.53852)
  1 by 1 by 1 MPI processor grid
  12288 atoms
  replicate CPU = 0.001 seconds
# --------------------- FORCE FIELDS ---------------------
pair_style      deepmd /pscratch/sd/y/yifanl/Work/h2o/pimd/benchmark/graph.pb
Summary of lammps deepmd module ...
  >>> Info of deepmd-kit:
  installed to:       /opt/deepmd-kit
  source:             
  source branch:      HEAD
  source commit:      5ec5eae
  source commit at:   2024-02-04 18:53:26 -0500
  support model ver.: 1.1 
  build variant:      cuda
  build with tf inc:  /opt/deepmd-kit/lib/python3.11/site-packages/tensorflow/include;/opt/deepmd-kit/include
  build with tf lib:  /opt/deepmd-kit/lib/python3.11/site-packages/tensorflow/libtensorflow_cc.so.2
  set tf intra_op_parallelism_threads: 0
  set tf inter_op_parallelism_threads: 0
  >>> Info of lammps module:
  use deepmd-kit at:  /opt/deepmd-kitpair_coeff * *
# --------------------- MD SETTINGS ----------------------
neighbor        2.0 bin
neigh_modify    every 10 delay 0 check no
timestep        0.000500
thermo          ${THERMO_FREQ}
thermo          1
thermo_style    custom step pe
#dump            1 all custom ${DUMP_FREQ} ${ibead}.xyz id type x y z
#dump_modify     1 sort id
fix 1 all pimd/langevin ensemble nvt integrator obabo temp ${TEMP} thermostat PILE_L 1234 tau ${TAU_T}
fix 1 all pimd/langevin ensemble nvt integrator obabo temp 300 thermostat PILE_L 1234 tau ${TAU_T}
fix 1 all pimd/langevin ensemble nvt integrator obabo temp 300 thermostat PILE_L 1234 tau 1
# --------------------- RUN ------------------------------
run             ${NSTEPS}
run             1000

CITE-CITE-CITE-CITE-CITE-CITE-CITE-CITE-CITE-CITE-CITE-CITE-CITE

Your simulation uses code contributions which should be cited:

- USER-DEEPMD package:

@article{Wang_ComputPhysCommun_2018_v228_p178,
  author = {Wang, Han and Zhang, Linfeng and Han, Jiequn and E, Weinan},
  doi = {10.1016/j.cpc.2018.03.016},
  url = {https://doi.org/10.1016/j.cpc.2018.03.016},
  year = 2018,
  month = {jul},
  publisher = {Elsevier {BV}},
  volume = 228,
  journal = {Comput. Phys. Commun.},
  title = {{DeePMD-kit: A deep learning package for many-body potential energy representation and molecular dynamics}},
  pages = {178--184}
}
@misc{Zeng_JChemPhys_2023_v159_p054801,
  title  = {{DeePMD-kit v2: A software package for deep potential models}},
  author =   {Jinzhe Zeng and Duo Zhang and Denghui Lu and Pinghui Mo and Zeyu Li
         and Yixiao Chen and Mari{\'a}n Rynik and Li'ang Huang and Ziyao Li and 
         Shaochen Shi and Yingze Wang and Haotian Ye and Ping Tuo and Jiabin
         Yang and Ye Ding and Yifan Li and Davide Tisi and Qiyu Zeng and Han 
         Bao and Yu Xia and Jiameng Huang and Koki Muraoka and Yibo Wang and 
         Junhan Chang and Fengbo Yuan and Sigbj{\o}rn L{\o}land Bore and Chun
         Cai and Yinnian Lin and Bo Wang and Jiayan Xu and Jia-Xin Zhu and 
         Chenxing Luo and Yuzhi Zhang and Rhys E A Goodall and Wenshuo Liang
         and Anurag Kumar Singh and Sikai Yao and Jingchao Zhang and Renata
         Wentzcovitch and Jiequn Han and Jie Liu and Weile Jia and Darrin M
         York and Weinan E and Roberto Car and Linfeng Zhang and Han Wang},
  journal =  {J. Chem. Phys.},
  volume =   159,
  issue =    5,  
  year =    2023,
  pages  =   054801,
  doi =      {10.1063/5.0155600},
}

CITE-CITE-CITE-CITE-CITE-CITE-CITE-CITE-CITE-CITE-CITE-CITE-CITE

Generated 0 of 1 mixed pair_coeff terms from geometric mixing rule

Initializing PI Langevin equation thermostat...
Bead ID    |    omega    |    tau    |    c1    |    c2
    0     0.00000000e+00 1.00000000e+00 9.99750031e-01 2.23578850e-02
    1     2.46383091e+02 2.02936004e-03 8.84094302e-01 4.67308533e-01
    2     4.90393378e+02 1.01958962e-03 7.82550604e-01 6.22586984e-01
    3     7.29680909e+02 6.85231028e-04 6.94307415e-01 7.19678548e-01
    4     9.61941214e+02 5.19782282e-04 6.18183088e-01 7.86034141e-01
    5     1.18493750e+03 4.21963184e-04 5.52960477e-01 8.33207484e-01
    6     1.39652219e+03 3.58032263e-04 4.97449570e-01 8.67492896e-01
    7     1.59465761e+03 3.13546932e-04 4.50530815e-01 8.92760878e-01
    8     1.77743560e+03 2.81304144e-04 4.11182633e-01 9.11552984e-01
    9     1.94309592e+03 2.57321317e-04 3.78496688e-01 9.25602646e-01
    10     2.09004316e+03 2.39229510e-04 3.51684231e-01 9.36118690e-01
    11     2.21686214e+03 2.25544021e-04 3.30076422e-01 9.43954213e-01
    12     2.32233153e+03 2.15300871e-04 3.13120943e-01 9.49713259e-01
    13     2.40543559e+03 2.07862560e-04 3.00376739e-01 9.53820641e-01
    14     2.46537400e+03 2.02808986e-04 2.91508242e-01 9.56568317e-01
    15     2.50156951e+03 1.99874518e-04 2.86280050e-01 9.58145987e-01
    16     2.51367353e+03 1.98912068e-04 2.84552711e-01 9.58660396e-01
    17     2.50156951e+03 1.99874518e-04 2.86280050e-01 9.58145987e-01
    18     2.46537400e+03 2.02808986e-04 2.91508242e-01 9.56568317e-01
    19     2.40543559e+03 2.07862560e-04 3.00376739e-01 9.53820641e-01
    20     2.32233153e+03 2.15300871e-04 3.13120943e-01 9.49713259e-01
    21     2.21686214e+03 2.25544021e-04 3.30076422e-01 9.43954213e-01
    22     2.09004316e+03 2.39229510e-04 3.51684231e-01 9.36118690e-01
    23     1.94309592e+03 2.57321317e-04 3.78496688e-01 9.25602646e-01
    24     1.77743560e+03 2.81304144e-04 4.11182633e-01 9.11552984e-01
    25     1.59465761e+03 3.13546932e-04 4.50530815e-01 8.92760878e-01
    26     1.39652219e+03 3.58032263e-04 4.97449570e-01 8.67492896e-01
    27     1.18493750e+03 4.21963184e-04 5.52960477e-01 8.33207484e-01
    28     9.61941214e+02 5.19782282e-04 6.18183088e-01 7.86034141e-01
    29     7.29680909e+02 6.85231028e-04 6.94307415e-01 7.19678548e-01
    30     4.90393378e+02 1.01958962e-03 7.82550604e-01 6.22586984e-01
    31     2.46383091e+02 2.02936004e-03 8.84094302e-01 4.67308533e-01
PILE_L thermostat successfully initialized!

Neighbor list info ...
  update: every = 10 steps, delay = 0 steps, check = no
  max neighbors/atom: 2000, page size: 100000
  master list distance cutoff = 8
  ghost atom cutoff = 8
  binsize = 4, bins = 13 13 13
  1 neighbor lists, perpetual/occasional/extra = 1 0 0
  (1) pair deepmd, perpetual
      attributes: full, newton on
      pair build: full/bin/atomonly
      stencil: full/bin/3d
      bin: standard
Per MPI rank memory allocation (min/avg/max) = 15.5 | 15.5 | 15.5 Mbytes
   Step         PotEng    
         0  -1914325.3    
         1  -1914118.8    
         2  -1913941.4    
         3  -1913823.5    
         4  -1913733.7    
         5  -1913675.2    
         6  -1913600.1    
         7  -1913536.3    
         8  -1913498.7    
         9  -1913451.9    
        10  -1913432      
        11  -1913457      
        12  -1913476.1    
        13  -1913493.6    
        14  -1913519.4    
        15  -1913511.7    
        16  -1913503.1    
        17  -1913480.1    
        18  -1913460.1    
        19  -1913456.3    
        20  -1913449.6    
        21  -1913456      
        22  -1913490.9    
        23  -1913528.6    
        24  -1913540.2    
        25  -1913544.2    
        26  -1913543.8    
        27  -1913510.9    
        28  -1913507.3    
        29  -1913505.2    
        30  -1913507.3    
        31  -1913492.5    
        32  -1913500.4    
        33  -1913506.7    
        34  -1913492.1    
        35  -1913479      
        36  -1913475.4    
        37  -1913468      
        38  -1913445.3    
        39  -1913435.4    
        40  -1913451.9    
        41  -1913467.5    
        42  -1913481.5    
        43  -1913484.4    
        44  -1913481.9    
        45  -1913500.6    
        46  -1913512      
        47  -1913502      
        48  -1913487.3    
        49  -1913474.3    
        50  -1913486.4    
        51  -1913501.4    
        52  -1913509.6    
        53  -1913503.2    
        54  -1913498.4    
        55  -1913479.8    
        56  -1913476.3    
        57  -1913482.8    
        58  -1913483.8    
        59  -1913473.5    
        60  -1913469.5    
        61  -1913511.1    
        62  -1913481.6    
        63  -1913480.3    
        64  -1913495.8    
        65  -1913516.3    
        66  -1913526.2    
        67  -1913505      
        68  -1913510.7    
        69  -1913502.7    
        70  -1913524.8    
        71  -1913535.9    
        72  -1913538      
        73  -1913517.8    
        74  -1913502.6    
        75  -1913481.3    
        76  -1913484.5    
        77  -1913502.8    
        78  -1913458      
        79  -1913463.2    
        80  -1913469      
        81  -1913464.4    
        82  -1913480.7    
        83  -1913470.6    
        84  -1913492.5    
        85  -1913498      
        86  -1913516.8    
        87  -1913520.8    
        88  -1913513.5    
        89  -1913523.6    
        90  -1913529.8    
        91  -1913529.3    
        92  -1913523.7    
        93  -1913507.9    
        94  -1913488.7    
        95  -1913490.9    
        96  -1913459.6    
        97  -1913445      
        98  -1913452.9    
        99  -1913456.7    
       100  -1913478.6    
       101  -1913477.2    
       102  -1913472.4    
       103  -1913483.4    
       104  -1913460.5    
       105  -1913474.9    
       106  -1913489.9    
       107  -1913509      
       108  -1913508.4    
       109  -1913511.4    
       110  -1913490.6    
       111  -1913499.1    
       112  -1913489.6    
       113  -1913504.3    
       114  -1913488.8    
       115  -1913466.8    
       116  -1913461.9    
       117  -1913458      
       118  -1913444.4    
       119  -1913461.1    
       120  -1913456.7    
       121  -1913470.5    
       122  -1913481.2    
       123  -1913468.1    
       124  -1913457.3    
       125  -1913460.2    
       126  -1913458.7    
       127  -1913456.9    
       128  -1913467.5    
       129  -1913484.5    
       130  -1913500.2    
       131  -1913516.2    
       132  -1913509.3    
       133  -1913510.1    
       134  -1913502.3    
       135  -1913484.1    
       136  -1913509.8    
       137  -1913498.9    
       138  -1913481.5    
       139  -1913471.8    
       140  -1913468.6    
       141  -1913462.1    
       142  -1913475.3    
       143  -1913461.5    
       144  -1913470.9    
       145  -1913450.7    
       146  -1913453.9    
       147  -1913462.6    
       148  -1913491.6    
       149  -1913509.6    
       150  -1913512      
       151  -1913496.2    
       152  -1913520.9    
       153  -1913509.6    
       154  -1913489.3    
       155  -1913475.4    
       156  -1913464.4    
       157  -1913481      
       158  -1913476.9    
       159  -1913465.5    
       160  -1913453.9    
       161  -1913461.5    
       162  -1913467.7    
       163  -1913478.8    
       164  -1913478.2    
       165  -1913478.2    
       166  -1913476.4    
       167  -1913461      
       168  -1913497.7    
       169  -1913499.4    
       170  -1913489.4    
       171  -1913498.8    
       172  -1913478.3    
       173  -1913451      
       174  -1913472.2    
       175  -1913490.3    
       176  -1913497.4    
       177  -1913487.7    
       178  -1913492.2    
       179  -1913482.5    
       180  -1913472.3    
       181  -1913474.3    
       182  -1913458.8    
       183  -1913476.8    
       184  -1913477.6    
       185  -1913487.2    
       186  -1913476.1    
       187  -1913478.7    
       188  -1913473      
       189  -1913482.7    
       190  -1913472.7    
       191  -1913492.1    
       192  -1913503.1    
       193  -1913476.9    
       194  -1913469.1    
       195  -1913475.9    
       196  -1913472.3    
       197  -1913486.4    
       198  -1913491      
       199  -1913492.5    
       200  -1913495.2    
       201  -1913466.9    
       202  -1913474.3    
       203  -1913463.6    
       204  -1913474.6    
       205  -1913463.3    
       206  -1913461.6    
       207  -1913470.2    
       208  -1913464      
       209  -1913459.9    
       210  -1913460.7    
       211  -1913457.5    
       212  -1913477.8    
       213  -1913462.9    
       214  -1913461      
       215  -1913472.1    
       216  -1913487.6    
       217  -1913464.3    
       218  -1913457.8    
       219  -1913449.9    
       220  -1913469.5    
       221  -1913474.9    
       222  -1913473.2    
       223  -1913456.3    
       224  -1913470.5    
       225  -1913459.7    
       226  -1913452.2    
       227  -1913445.7    
       228  -1913441.5    
       229  -1913439.8    
       230  -1913443.2    
       231  -1913452.5    
       232  -1913465.4    
       233  -1913451.8    
       234  -1913466.8    
       235  -1913469.9    
       236  -1913468.4    
       237  -1913468.8    
       238  -1913480.9    
       239  -1913451.7    
       240  -1913443.7    
       241  -1913452.6    
       242  -1913460      
       243  -1913455.9    
       244  -1913466.2    
       245  -1913468.3    
       246  -1913479.9    
       247  -1913482.5    
       248  -1913500.7    
       249  -1913472.7    
       250  -1913469.2    
       251  -1913469.5    
       252  -1913481.2    
       253  -1913461.8    
       254  -1913464.8    
       255  -1913457.2    
       256  -1913499      
       257  -1913490.6    
       258  -1913474.8    
       259  -1913474.1    
       260  -1913468.7    
       261  -1913466.3    
       262  -1913475.7    
       263  -1913456.1    
       264  -1913456.2    
       265  -1913452.5    
       266  -1913445.2    
       267  -1913476.2    
       268  -1913474      
       269  -1913461.3    
       270  -1913470.5    
       271  -1913460.9    
       272  -1913441.4    
       273  -1913454.6    
       274  -1913445      
       275  -1913436      
       276  -1913468.1    
       277  -1913466.2    
       278  -1913458.1    
       279  -1913445.4    
       280  -1913464.7    
       281  -1913483.8    
       282  -1913465.8    
       283  -1913463.7    
       284  -1913462      
       285  -1913447.4    
       286  -1913460.4    
       287  -1913459.9    
       288  -1913473      
       289  -1913470.5    
       290  -1913479.9    
       291  -1913463.5    
       292  -1913439.5    
       293  -1913456.2    
       294  -1913436.4    
       295  -1913440.7    
       296  -1913436.7    
       297  -1913466.9    
       298  -1913462.3    
       299  -1913462.2    
       300  -1913471.8    
       301  -1913470.7    
       302  -1913459      
       303  -1913468.3    
       304  -1913460.3    
       305  -1913460.5    
       306  -1913445.3    
       307  -1913451.5    
       308  -1913450.7    
       309  -1913458.3    
       310  -1913479      
       311  -1913468.8    
       312  -1913468.5    
       313  -1913464.3    
       314  -1913463.4    
       315  -1913468      
       316  -1913448.2    
       317  -1913447.9    
       318  -1913451.7    
       319  -1913469.2    
       320  -1913458.2    
       321  -1913452.2    
       322  -1913468.7    
       323  -1913480.2    
       324  -1913454.4    
       325  -1913449.6    
       326  -1913449.6    
       327  -1913438.9    
       328  -1913437.2    
       329  -1913426      
       330  -1913426.8    
       331  -1913424.8    
       332  -1913433.8    
       333  -1913443.2    
       334  -1913448.6    
       335  -1913477.3    
       336  -1913463      
       337  -1913464      
       338  -1913432.7    
       339  -1913425.4    
       340  -1913429.4    
       341  -1913444.4    
       342  -1913449.9    
       343  -1913450.9    
       344  -1913449.4    
       345  -1913468.1    
       346  -1913453      
       347  -1913449.5    
       348  -1913442.7    
       349  -1913443.8    
       350  -1913441.3    
       351  -1913450      
       352  -1913439.1    
       353  -1913452.8    
       354  -1913461.5    
       355  -1913445.2    
       356  -1913444.9    
       357  -1913452.9    
       358  -1913465.8    
       359  -1913453.9    
       360  -1913451.4    
       361  -1913445.1    
       362  -1913453.9    
       363  -1913452.3    
       364  -1913457.7    
       365  -1913478.5    
       366  -1913470.7    
       367  -1913456.6    
       368  -1913442.1    
       369  -1913431.8    
       370  -1913444.5    
       371  -1913456.2    
       372  -1913436      
       373  -1913434.2    
       374  -1913456.1    
       375  -1913446.1    
       376  -1913436.9    
       377  -1913431.4    
       378  -1913449.5    
       379  -1913441.7    
       380  -1913447.5    
       381  -1913454.3    
       382  -1913438.5    
       383  -1913445.8    
       384  -1913430.3    
       385  -1913433.3    
       386  -1913450.1    
       387  -1913449.8    
       388  -1913436.9    
       389  -1913444.7    
       390  -1913436.2    
       391  -1913462.3    
       392  -1913465.2    
       393  -1913452.4    
       394  -1913450.9    
       395  -1913444.2    
       396  -1913434.2    
       397  -1913417.1    
       398  -1913425.7    
       399  -1913410.5    
       400  -1913423.5    
       401  -1913448.9    
       402  -1913443.5    
       403  -1913442.3    
       404  -1913441.1    
       405  -1913453.5    
       406  -1913468.1    
       407  -1913461.4    
       408  -1913444.3    
       409  -1913457.8    
       410  -1913449.4    
       411  -1913430.7    
       412  -1913448.3    
       413  -1913440.2    
       414  -1913444.4    
       415  -1913439.2    
       416  -1913458      
       417  -1913454.3    
       418  -1913442.4    
       419  -1913424.8    
       420  -1913437.1    
       421  -1913435.1    
       422  -1913444.1    
       423  -1913443.7    
       424  -1913436      
       425  -1913438.5    
       426  -1913429.2    
       427  -1913441.6    
       428  -1913441.9    
       429  -1913453.9    
       430  -1913448      
       431  -1913437.6    
       432  -1913448.8    
       433  -1913446.5    
       434  -1913450.1    
       435  -1913448.7    
       436  -1913447.6    
       437  -1913447.2    
       438  -1913439.3    
       439  -1913440.6    
       440  -1913446.7    
       441  -1913423.3    
       442  -1913420.7    
       443  -1913422.7    
       444  -1913440      
       445  -1913444.6    
       446  -1913461.6    
       447  -1913457.3    
       448  -1913452.4    
       449  -1913457.7    
       450  -1913418.7    
       451  -1913417.9    
       452  -1913448.6    
       453  -1913461.9    
       454  -1913467.3    
       455  -1913461.6    
       456  -1913468.2    
       457  -1913465.6    
       458  -1913443.2    
       459  -1913436.7    
       460  -1913431.4    
       461  -1913452.4    
       462  -1913450.6    
       463  -1913449.1    
       464  -1913442.5    
       465  -1913445.3    
       466  -1913434.5    
       467  -1913451.3    
       468  -1913450.8    
       469  -1913456.3    
       470  -1913456.5    
       471  -1913437.7    
       472  -1913462.6    
       473  -1913447.6    
       474  -1913439.5    
       475  -1913437      
       476  -1913425.6    
       477  -1913433.9    
       478  -1913427.1    
       479  -1913417.1    
       480  -1913435.9    
       481  -1913420.8    
       482  -1913422.6    
       483  -1913433.8    
       484  -1913436.3    
       485  -1913447.9    
       486  -1913453.1    
       487  -1913446.5    
       488  -1913457      
       489  -1913457      
       490  -1913469.9    
       491  -1913468.2    
       492  -1913468.2    
       493  -1913465.2    
       494  -1913451      
       495  -1913451.7    
       496  -1913450.3    
       497  -1913450.8    
       498  -1913454.2    
       499  -1913438.5    
       500  -1913429.8    
       501  -1913443.3    
       502  -1913437.1    
       503  -1913444.8    
       504  -1913456.9    
       505  -1913467.7    
       506  -1913469.1    
       507  -1913460.4    
       508  -1913438.5    
       509  -1913427.9    
       510  -1913423.8    
       511  -1913439.6    
       512  -1913420.1    
       513  -1913433.5    
       514  -1913451.3    
       515  -1913430      
       516  -1913417.3    
       517  -1913404.6    
       518  -1913422.2    
       519  -1913428.2    
       520  -1913431.6    
       521  -1913437.3    
       522  -1913432.1    
       523  -1913429.2    
       524  -1913425.1    
       525  -1913434.1    
       526  -1913434.6    
       527  -1913428      
       528  -1913434.6    
       529  -1913436.3    
       530  -1913449.1    
       531  -1913479.3    
       532  -1913449.8    
       533  -1913434.1    
       534  -1913438.8    
       535  -1913409.3    
       536  -1913451.8    
       537  -1913418.6    
       538  -1913424.5    
       539  -1913428.7    
       540  -1913434.6    
       541  -1913420.2    
       542  -1913427.3    
       543  -1913428      
       544  -1913430.8    
       545  -1913431.9    
       546  -1913440.4    
       547  -1913448.1    
       548  -1913448.5    
       549  -1913431.6    
       550  -1913435.5    
       551  -1913418.6    
       552  -1913421.5    
       553  -1913414.6    
       554  -1913418.1    
       555  -1913428.2    
       556  -1913424.4    
       557  -1913424.9    
       558  -1913441.4    
       559  -1913437.9    
       560  -1913421.9    
       561  -1913413.9    
       562  -1913430.3    
       563  -1913431.4    
       564  -1913428      
       565  -1913446.2    
       566  -1913457.9    
       567  -1913436.9    
       568  -1913432.9    
       569  -1913432.6    
       570  -1913435.9    
       571  -1913443.9    
       572  -1913444.6    
       573  -1913441.7    
       574  -1913439      
       575  -1913430.1    
       576  -1913426.5    
       577  -1913437.9    
       578  -1913430.9    
       579  -1913438.5    
       580  -1913435.9    
       581  -1913441.4    
       582  -1913445.9    
       583  -1913441.8    
       584  -1913450.9    
       585  -1913454      
       586  -1913451.1    
       587  -1913450.5    
       588  -1913434.1    
       589  -1913421.8    
       590  -1913427.2    
       591  -1913426.2    
       592  -1913429.2    
       593  -1913436.4    
       594  -1913448.1    
       595  -1913432.1    
       596  -1913426.6    
       597  -1913433      
       598  -1913417.1    
       599  -1913426      
       600  -1913424.3    
       601  -1913440.8    
       602  -1913448.1    
       603  -1913446.1    
       604  -1913434.2    
       605  -1913440.5    
       606  -1913424.3    
       607  -1913411.6    
       608  -1913439.4    
       609  -1913450.6    
       610  -1913454.1    
       611  -1913467.5    
       612  -1913472.1    
       613  -1913444.2    
       614  -1913432.5    
       615  -1913411.5    
       616  -1913430.7    
       617  -1913431      
       618  -1913424.7    
       619  -1913418.5    
       620  -1913437.9    
       621  -1913414.3    
       622  -1913416.9    
       623  -1913399.9    
       624  -1913400.2    
       625  -1913413      
       626  -1913426.9    
       627  -1913430.6    
       628  -1913435.1    
       629  -1913459.3    
       630  -1913460.4    
       631  -1913433.1    
       632  -1913423.1    
       633  -1913406.6    
       634  -1913412.6    
       635  -1913411.3    
       636  -1913423.4    
       637  -1913433.2    
       638  -1913443.2    
       639  -1913424.7    
       640  -1913428.7    
       641  -1913431.5    
       642  -1913429.1    
       643  -1913419.7    
       644  -1913415.9    
       645  -1913417      
       646  -1913433.7    
       647  -1913436.2    
       648  -1913425.1    
       649  -1913461.5    
       650  -1913452.2    
       651  -1913430.7    
       652  -1913428.3    
       653  -1913424.4    
       654  -1913427.1    
       655  -1913409.9    
       656  -1913411.1    
       657  -1913407.9    
       658  -1913404.2    
       659  -1913416.3    
       660  -1913427.5    
       661  -1913437.4    
       662  -1913416.5    
       663  -1913397.8    
       664  -1913399.9    
       665  -1913407      
       666  -1913430.7    
       667  -1913427.6    
       668  -1913443.4    
       669  -1913431.2    
       670  -1913424.2    
       671  -1913425.5    
       672  -1913422      
       673  -1913431.1    
       674  -1913427.5    
       675  -1913425.6    
       676  -1913431      
       677  -1913424.8    
       678  -1913425      
       679  -1913436.5    
       680  -1913439.2    
       681  -1913449.4    
       682  -1913443.5    
       683  -1913442.3    
       684  -1913442.6    
       685  -1913438.9    
       686  -1913431.9    
       687  -1913438.1    
       688  -1913437.7    
       689  -1913432.6    
       690  -1913441      
       691  -1913433.1    
       692  -1913434.1    
       693  -1913425.7    
       694  -1913425.6    
       695  -1913440.4    
       696  -1913456.5    
       697  -1913439.6    
       698  -1913440.1    
       699  -1913414.4    
       700  -1913415.2    
       701  -1913418.4    
       702  -1913415.6    
       703  -1913428      
       704  -1913415      
       705  -1913417.6    
       706  -1913422.9    
       707  -1913435.6    
       708  -1913436.7    
       709  -1913424.4    
       710  -1913412.2    
       711  -1913407.3    
       712  -1913435.2    
       713  -1913426.8    
       714  -1913411.3    
       715  -1913421.8    
       716  -1913424.9    
       717  -1913434.6    
       718  -1913437.4    
       719  -1913422.9    
       720  -1913430.1    
       721  -1913409.5    
       722  -1913412.8    
       723  -1913420.2    
       724  -1913419.2    
       725  -1913406.1    
       726  -1913409.9    
       727  -1913421.8    
       728  -1913428      
       729  -1913414.1    
       730  -1913410.2    
       731  -1913410      
       732  -1913414.9    
       733  -1913412.4    
       734  -1913404.8    
       735  -1913420.3    
       736  -1913433.6    
       737  -1913435.4    
       738  -1913442.6    
       739  -1913439.6    
       740  -1913433.7    
       741  -1913422      
       742  -1913408      
       743  -1913410.5    
       744  -1913425.9    
       745  -1913420.4    
       746  -1913426.6    
       747  -1913443.9    
       748  -1913452.8    
       749  -1913451.3    
       750  -1913432      
       751  -1913419.4    
       752  -1913432.8    
       753  -1913442.7    
       754  -1913433      
       755  -1913429.2    
       756  -1913426.8    
       757  -1913426.1    
       758  -1913416.3    
       759  -1913412.5    
       760  -1913407.2    
       761  -1913421.7    
       762  -1913426.1    
       763  -1913434.7    
       764  -1913416.6    
       765  -1913426      
       766  -1913433.6    
       767  -1913409.6    
       768  -1913406.5    
       769  -1913415      
       770  -1913407.6    
       771  -1913401.7    
       772  -1913427.2    
       773  -1913431.1    
       774  -1913444.8    
       775  -1913426.3    
       776  -1913413.5    
       777  -1913412.5    
       778  -1913422.7    
       779  -1913425.1    
       780  -1913419.6    
       781  -1913409.6    
       782  -1913411.1    
       783  -1913410.3    
       784  -1913405.4    
       785  -1913435.4    
       786  -1913425.6    
       787  -1913415.4    
       788  -1913413.5    
       789  -1913436.1    
       790  -1913437.5    
       791  -1913422.9    
       792  -1913422.9    
       793  -1913414.5    
       794  -1913426.2    
       795  -1913423.4    
       796  -1913424.3    
       797  -1913420.3    
       798  -1913441.1    
       799  -1913440.9    
       800  -1913438.3    
       801  -1913434.1    
       802  -1913430.9    
       803  -1913422.9    
       804  -1913413.9    
       805  -1913417.6    
       806  -1913416.4    
       807  -1913436.1    
       808  -1913430.4    
       809  -1913409      
       810  -1913421.3    
       811  -1913421.4    
       812  -1913438.3    
       813  -1913424      
       814  -1913433      
       815  -1913442.8    
       816  -1913420.8    
       817  -1913410.1    
       818  -1913402.4    
       819  -1913398.3    
       820  -1913387.4    
       821  -1913403.1    
       822  -1913399.8    
       823  -1913415.4    
       824  -1913431.8    
       825  -1913439.7    
       826  -1913427.2    
       827  -1913416.3    
       828  -1913408.8    
       829  -1913423      
       830  -1913434.8    
       831  -1913429.5    
       832  -1913425.6    
       833  -1913397.1    
       834  -1913411.1    
       835  -1913411.2    
       836  -1913424.8    
       837  -1913421      
       838  -1913399.9    
       839  -1913409.3    
       840  -1913432.6    
       841  -1913411.7    
       842  -1913420.3    
       843  -1913425.6    
       844  -1913436.6    
       845  -1913431.9    
       846  -1913445      
       847  -1913435.1    
       848  -1913431.3    
       849  -1913427.6    
       850  -1913426.4    
       851  -1913401.3    
       852  -1913406.2    
       853  -1913434.3    
       854  -1913432.3    
       855  -1913420.9    
       856  -1913412.5    
       857  -1913411.7    
       858  -1913394.9    
       859  -1913392.9    
       860  -1913425.2    
       861  -1913436.3    
       862  -1913443.7    
       863  -1913453      
       864  -1913451.8    
       865  -1913444.1    
       866  -1913439.1    
       867  -1913414.8    
       868  -1913424.2    
       869  -1913413.1    
       870  -1913412.7    
       871  -1913412.2    
       872  -1913416.9    
       873  -1913418.4    
       874  -1913426.9    
       875  -1913440.6    
       876  -1913415.3    
       877  -1913408.1    
       878  -1913405      
       879  -1913406.8    
       880  -1913437.9    
       881  -1913421.9    
       882  -1913445.6    
       883  -1913425.3    
       884  -1913419      
       885  -1913419.5    
       886  -1913420.1    
       887  -1913422.5    
       888  -1913409.2    
       889  -1913416.2    
       890  -1913431.2    
       891  -1913437      
       892  -1913424.3    
       893  -1913423      
       894  -1913419.3    
       895  -1913413.5    
       896  -1913405.6    
       897  -1913411      
       898  -1913428.3    
       899  -1913443      
       900  -1913445.2    
       901  -1913452.7    
       902  -1913449.7    
       903  -1913420.6    
       904  -1913399.7    
       905  -1913388.7    
       906  -1913400      
       907  -1913412.8    
       908  -1913440.4    
       909  -1913440      
       910  -1913422.4    
       911  -1913404.1    
       912  -1913408.1    
       913  -1913398.8    
       914  -1913407.3    
       915  -1913411.2    
       916  -1913422.5    
       917  -1913414.9    
       918  -1913421.1    
       919  -1913434.3    
       920  -1913431.1    
       921  -1913426.2    
       922  -1913422.2    
       923  -1913432.1    
       924  -1913433.2    
       925  -1913414.8    
       926  -1913409.5    
       927  -1913394.5    
       928  -1913407.4    
       929  -1913402.1    
       930  -1913415.3    
       931  -1913421.4    
       932  -1913415.7    
       933  -1913417.3    
       934  -1913428.6    
       935  -1913435.6    
       936  -1913433.9    
       937  -1913431.4    
       938  -1913431.5    
       939  -1913432.5    
       940  -1913421.8    
       941  -1913415.8    
       942  -1913430.4    
       943  -1913420.6    
       944  -1913435.4    
       945  -1913440.4    
       946  -1913430.9    
       947  -1913415.6    
       948  -1913414.5    
       949  -1913405.4    
       950  -1913400      
       951  -1913415.5    
       952  -1913414.8    
       953  -1913427      
       954  -1913420.6    
       955  -1913414.5    
       956  -1913402.4    
       957  -1913410.8    
       958  -1913401.1    
       959  -1913418.4    
       960  -1913407.5    
       961  -1913422      
       962  -1913427.6    
       963  -1913420.5    
       964  -1913412.7    
       965  -1913398.6    
       966  -1913407.2    
       967  -1913416.2    
       968  -1913404.1    
       969  -1913408.3    
       970  -1913405.1    
       971  -1913427.9    
       972  -1913451.4    
       973  -1913447.5    
       974  -1913436      
       975  -1913435.4    
       976  -1913429.8    
       977  -1913418.5    
       978  -1913409.5    
       979  -1913419.2    
       980  -1913420.6    
       981  -1913432.7    
       982  -1913413.2    
       983  -1913405.9    
       984  -1913387      
       985  -1913390.1    
       986  -1913413.1    
       987  -1913423.6    
       988  -1913426.1    
       989  -1913413.9    
       990  -1913416.1    
       991  -1913420.6    
       992  -1913405      
       993  -1913413.3    
       994  -1913422.1    
       995  -1913430      
       996  -1913435.8    
       997  -1913409.8    
       998  -1913420.1    
       999  -1913436      
      1000  -1913428.5    
Loop time of 219.836 on 1 procs for 1000 steps with 12288 atoms

Performance: 0.197 ns/day, 122.131 hours/ns, 4.549 timesteps/s, 55.896 katom-step/s
100.6% CPU use with 1 MPI tasks x 1 OpenMP threads

MPI task timing breakdown:
Section |  min time  |  avg time  |  max time  |%varavg| %total
---------------------------------------------------------------
Pair    | 72.278     | 72.278     | 72.278     |   0.0 | 32.88
Neigh   | 6.2669     | 6.2669     | 6.2669     |   0.0 |  2.85
Comm    | 0.14304    | 0.14304    | 0.14304    |   0.0 |  0.07
Output  | 0.022131   | 0.022131   | 0.022131   |   0.0 |  0.01
Modify  | 141.05     | 141.05     | 141.05     |   0.0 | 64.16
Other   |            | 0.07376    |            |       |  0.03

Nlocal:          12288 ave       12288 max       12288 min
Histogram: 1 0 0 0 0 0 0 0 0 0
Nghost:          15856 ave       15856 max       15856 min
Histogram: 1 0 0 0 0 0 0 0 0 0
Neighs:              0 ave           0 max           0 min
Histogram: 1 0 0 0 0 0 0 0 0 0
FullNghs:  2.65556e+06 ave 2.65556e+06 max 2.65556e+06 min
Histogram: 1 0 0 0 0 0 0 0 0 0

Total # of neighbors = 2655556
Ave neighs/atom = 216.1097
Neighbor list builds = 100
Dangerous builds not checked
write_data      final.${ibead}
write_data      final.07
System init for write_data ...
Generated 0 of 1 mixed pair_coeff terms from geometric mixing rule

Initializing PI Langevin equation thermostat...
Bead ID    |    omega    |    tau    |    c1    |    c2
    0     0.00000000e+00 1.00000000e+00 9.99750031e-01 2.23578850e-02
    1     2.46383091e+02 2.02936004e-03 8.84094302e-01 4.67308533e-01
    2     4.90393378e+02 1.01958962e-03 7.82550604e-01 6.22586984e-01
    3     7.29680909e+02 6.85231028e-04 6.94307415e-01 7.19678548e-01
    4     9.61941214e+02 5.19782282e-04 6.18183088e-01 7.86034141e-01
    5     1.18493750e+03 4.21963184e-04 5.52960477e-01 8.33207484e-01
    6     1.39652219e+03 3.58032263e-04 4.97449570e-01 8.67492896e-01
    7     1.59465761e+03 3.13546932e-04 4.50530815e-01 8.92760878e-01
    8     1.77743560e+03 2.81304144e-04 4.11182633e-01 9.11552984e-01
    9     1.94309592e+03 2.57321317e-04 3.78496688e-01 9.25602646e-01
    10     2.09004316e+03 2.39229510e-04 3.51684231e-01 9.36118690e-01
    11     2.21686214e+03 2.25544021e-04 3.30076422e-01 9.43954213e-01
    12     2.32233153e+03 2.15300871e-04 3.13120943e-01 9.49713259e-01
    13     2.40543559e+03 2.07862560e-04 3.00376739e-01 9.53820641e-01
    14     2.46537400e+03 2.02808986e-04 2.91508242e-01 9.56568317e-01
    15     2.50156951e+03 1.99874518e-04 2.86280050e-01 9.58145987e-01
    16     2.51367353e+03 1.98912068e-04 2.84552711e-01 9.58660396e-01
    17     2.50156951e+03 1.99874518e-04 2.86280050e-01 9.58145987e-01
    18     2.46537400e+03 2.02808986e-04 2.91508242e-01 9.56568317e-01
    19     2.40543559e+03 2.07862560e-04 3.00376739e-01 9.53820641e-01
    20     2.32233153e+03 2.15300871e-04 3.13120943e-01 9.49713259e-01
    21     2.21686214e+03 2.25544021e-04 3.30076422e-01 9.43954213e-01
    22     2.09004316e+03 2.39229510e-04 3.51684231e-01 9.36118690e-01
    23     1.94309592e+03 2.57321317e-04 3.78496688e-01 9.25602646e-01
    24     1.77743560e+03 2.81304144e-04 4.11182633e-01 9.11552984e-01
    25     1.59465761e+03 3.13546932e-04 4.50530815e-01 8.92760878e-01
    26     1.39652219e+03 3.58032263e-04 4.97449570e-01 8.67492896e-01
    27     1.18493750e+03 4.21963184e-04 5.52960477e-01 8.33207484e-01
    28     9.61941214e+02 5.19782282e-04 6.18183088e-01 7.86034141e-01
    29     7.29680909e+02 6.85231028e-04 6.94307415e-01 7.19678548e-01
    30     4.90393378e+02 1.01958962e-03 7.82550604e-01 6.22586984e-01
    31     2.46383091e+02 2.02936004e-03 8.84094302e-01 4.67308533e-01
PILE_L thermostat successfully initialized!

Total wall time: 0:04:34
