LAMMPS (2 Aug 2023)
Processor partition = 8
OMP_NUM_THREADS environment is not set. Defaulting to 1 thread. (src/comm.cpp:98)
  using 1 OpenMP thread(s) per MPI task
Loaded 1 plugins from /opt/deepmd-kit/lib/deepmd_lmp
clear
OMP_NUM_THREADS environment is not set. Defaulting to 1 thread. (src/comm.cpp:98)
  using 1 OpenMP thread(s) per MPI task
Loaded 1 plugins from /opt/deepmd-kit/lib/deepmd_lmp
# --------------------- VARIABLES-------------------------
variable        ibead           uloop 99 pad
variable        NSTEPS          equal 1000
variable        THERMO_FREQ     equal 1
#variable        DUMP_FREQ       equal 4000
#variable        NREPEAT         equal ${NSTEPS}/${DUMP_FREQ}
variable        TEMP            equal 300.000000
variable        TAU_T           equal 1.000000
# ---------------------- INITIALIZAITION ------------------
units           metal
boundary        p p p
atom_style      atomic
atom_modify     map yes
# --------------------- ATOM DEFINITION ------------------
read_data       /pscratch/sd/y/yifanl/Work/h2o/pimd/initial_config/conf01
Reading data file ...
  orthogonal box = (0 0 0) to (24.76926 24.76926 24.76926)
  1 by 1 by 1 MPI processor grid
  reading atoms ...
  1536 atoms
  read_data CPU = 0.005 seconds
mass            1 16.000000
mass            2 1.000000
replicate       2 2 2
Replication is creating a 2x2x2 = 8 times larger system...
  orthogonal box = (0 0 0) to (49.53852 49.53852 49.53852)
  1 by 1 by 1 MPI processor grid
  12288 atoms
  replicate CPU = 0.001 seconds
# --------------------- FORCE FIELDS ---------------------
pair_style      deepmd /pscratch/sd/y/yifanl/Work/h2o/pimd/benchmark/graph.pb
Summary of lammps deepmd module ...
  >>> Info of deepmd-kit:
  installed to:       /opt/deepmd-kit
  source:             
  source branch:      HEAD
  source commit:      5ec5eae
  source commit at:   2024-02-04 18:53:26 -0500
  support model ver.: 1.1 
  build variant:      cuda
  build with tf inc:  /opt/deepmd-kit/lib/python3.11/site-packages/tensorflow/include;/opt/deepmd-kit/include
  build with tf lib:  /opt/deepmd-kit/lib/python3.11/site-packages/tensorflow/libtensorflow_cc.so.2
  set tf intra_op_parallelism_threads: 0
  set tf inter_op_parallelism_threads: 0
  >>> Info of lammps module:
  use deepmd-kit at:  /opt/deepmd-kitpair_coeff * *
# --------------------- MD SETTINGS ----------------------
neighbor        2.0 bin
neigh_modify    every 10 delay 0 check no
timestep        0.000500
thermo          ${THERMO_FREQ}
thermo          1
thermo_style    custom step pe
#dump            1 all custom ${DUMP_FREQ} ${ibead}.xyz id type x y z
#dump_modify     1 sort id
fix 1 all pimd/langevin ensemble nvt integrator obabo temp ${TEMP} thermostat PILE_L 1234 tau ${TAU_T}
fix 1 all pimd/langevin ensemble nvt integrator obabo temp 300 thermostat PILE_L 1234 tau ${TAU_T}
fix 1 all pimd/langevin ensemble nvt integrator obabo temp 300 thermostat PILE_L 1234 tau 1
# --------------------- RUN ------------------------------
run             ${NSTEPS}
run             1000

CITE-CITE-CITE-CITE-CITE-CITE-CITE-CITE-CITE-CITE-CITE-CITE-CITE

Your simulation uses code contributions which should be cited:

- USER-DEEPMD package:

@article{Wang_ComputPhysCommun_2018_v228_p178,
  author = {Wang, Han and Zhang, Linfeng and Han, Jiequn and E, Weinan},
  doi = {10.1016/j.cpc.2018.03.016},
  url = {https://doi.org/10.1016/j.cpc.2018.03.016},
  year = 2018,
  month = {jul},
  publisher = {Elsevier {BV}},
  volume = 228,
  journal = {Comput. Phys. Commun.},
  title = {{DeePMD-kit: A deep learning package for many-body potential energy representation and molecular dynamics}},
  pages = {178--184}
}
@misc{Zeng_JChemPhys_2023_v159_p054801,
  title  = {{DeePMD-kit v2: A software package for deep potential models}},
  author =   {Jinzhe Zeng and Duo Zhang and Denghui Lu and Pinghui Mo and Zeyu Li
         and Yixiao Chen and Mari{\'a}n Rynik and Li'ang Huang and Ziyao Li and 
         Shaochen Shi and Yingze Wang and Haotian Ye and Ping Tuo and Jiabin
         Yang and Ye Ding and Yifan Li and Davide Tisi and Qiyu Zeng and Han 
         Bao and Yu Xia and Jiameng Huang and Koki Muraoka and Yibo Wang and 
         Junhan Chang and Fengbo Yuan and Sigbj{\o}rn L{\o}land Bore and Chun
         Cai and Yinnian Lin and Bo Wang and Jiayan Xu and Jia-Xin Zhu and 
         Chenxing Luo and Yuzhi Zhang and Rhys E A Goodall and Wenshuo Liang
         and Anurag Kumar Singh and Sikai Yao and Jingchao Zhang and Renata
         Wentzcovitch and Jiequn Han and Jie Liu and Weile Jia and Darrin M
         York and Weinan E and Roberto Car and Linfeng Zhang and Han Wang},
  journal =  {J. Chem. Phys.},
  volume =   159,
  issue =    5,  
  year =    2023,
  pages  =   054801,
  doi =      {10.1063/5.0155600},
}

CITE-CITE-CITE-CITE-CITE-CITE-CITE-CITE-CITE-CITE-CITE-CITE-CITE

Generated 0 of 1 mixed pair_coeff terms from geometric mixing rule

Initializing PI Langevin equation thermostat...
Bead ID    |    omega    |    tau    |    c1    |    c2
    0     0.00000000e+00 1.00000000e+00 9.99750031e-01 2.23578850e-02
    1     2.46383091e+02 2.02936004e-03 8.84094302e-01 4.67308533e-01
    2     4.90393378e+02 1.01958962e-03 7.82550604e-01 6.22586984e-01
    3     7.29680909e+02 6.85231028e-04 6.94307415e-01 7.19678548e-01
    4     9.61941214e+02 5.19782282e-04 6.18183088e-01 7.86034141e-01
    5     1.18493750e+03 4.21963184e-04 5.52960477e-01 8.33207484e-01
    6     1.39652219e+03 3.58032263e-04 4.97449570e-01 8.67492896e-01
    7     1.59465761e+03 3.13546932e-04 4.50530815e-01 8.92760878e-01
    8     1.77743560e+03 2.81304144e-04 4.11182633e-01 9.11552984e-01
    9     1.94309592e+03 2.57321317e-04 3.78496688e-01 9.25602646e-01
    10     2.09004316e+03 2.39229510e-04 3.51684231e-01 9.36118690e-01
    11     2.21686214e+03 2.25544021e-04 3.30076422e-01 9.43954213e-01
    12     2.32233153e+03 2.15300871e-04 3.13120943e-01 9.49713259e-01
    13     2.40543559e+03 2.07862560e-04 3.00376739e-01 9.53820641e-01
    14     2.46537400e+03 2.02808986e-04 2.91508242e-01 9.56568317e-01
    15     2.50156951e+03 1.99874518e-04 2.86280050e-01 9.58145987e-01
    16     2.51367353e+03 1.98912068e-04 2.84552711e-01 9.58660396e-01
    17     2.50156951e+03 1.99874518e-04 2.86280050e-01 9.58145987e-01
    18     2.46537400e+03 2.02808986e-04 2.91508242e-01 9.56568317e-01
    19     2.40543559e+03 2.07862560e-04 3.00376739e-01 9.53820641e-01
    20     2.32233153e+03 2.15300871e-04 3.13120943e-01 9.49713259e-01
    21     2.21686214e+03 2.25544021e-04 3.30076422e-01 9.43954213e-01
    22     2.09004316e+03 2.39229510e-04 3.51684231e-01 9.36118690e-01
    23     1.94309592e+03 2.57321317e-04 3.78496688e-01 9.25602646e-01
    24     1.77743560e+03 2.81304144e-04 4.11182633e-01 9.11552984e-01
    25     1.59465761e+03 3.13546932e-04 4.50530815e-01 8.92760878e-01
    26     1.39652219e+03 3.58032263e-04 4.97449570e-01 8.67492896e-01
    27     1.18493750e+03 4.21963184e-04 5.52960477e-01 8.33207484e-01
    28     9.61941214e+02 5.19782282e-04 6.18183088e-01 7.86034141e-01
    29     7.29680909e+02 6.85231028e-04 6.94307415e-01 7.19678548e-01
    30     4.90393378e+02 1.01958962e-03 7.82550604e-01 6.22586984e-01
    31     2.46383091e+02 2.02936004e-03 8.84094302e-01 4.67308533e-01
PILE_L thermostat successfully initialized!

Neighbor list info ...
  update: every = 10 steps, delay = 0 steps, check = no
  max neighbors/atom: 2000, page size: 100000
  master list distance cutoff = 8
  ghost atom cutoff = 8
  binsize = 4, bins = 13 13 13
  1 neighbor lists, perpetual/occasional/extra = 1 0 0
  (1) pair deepmd, perpetual
      attributes: full, newton on
      pair build: full/bin/atomonly
      stencil: full/bin/3d
      bin: standard
Per MPI rank memory allocation (min/avg/max) = 15.5 | 15.5 | 15.5 Mbytes
   Step         PotEng    
         0  -1914325.3    
         1  -1914109.5    
         2  -1913934      
         3  -1913819.1    
         4  -1913725.1    
         5  -1913647.1    
         6  -1913586.2    
         7  -1913525.9    
         8  -1913469.4    
         9  -1913434.5    
        10  -1913436.6    
        11  -1913457.5    
        12  -1913483.7    
        13  -1913504.2    
        14  -1913497.6    
        15  -1913510.3    
        16  -1913493.6    
        17  -1913486.5    
        18  -1913469.9    
        19  -1913460.5    
        20  -1913454.8    
        21  -1913476.4    
        22  -1913501.9    
        23  -1913530.1    
        24  -1913540.1    
        25  -1913533.6    
        26  -1913514.1    
        27  -1913518.8    
        28  -1913513.1    
        29  -1913508.1    
        30  -1913531.6    
        31  -1913533.5    
        32  -1913524.4    
        33  -1913522.8    
        34  -1913515.3    
        35  -1913501.5    
        36  -1913489.4    
        37  -1913471.9    
        38  -1913455.2    
        39  -1913452      
        40  -1913436.7    
        41  -1913425.2    
        42  -1913475.2    
        43  -1913505.5    
        44  -1913516.9    
        45  -1913516.8    
        46  -1913502.5    
        47  -1913509.4    
        48  -1913479.6    
        49  -1913485.7    
        50  -1913485.8    
        51  -1913495.3    
        52  -1913490.1    
        53  -1913474.4    
        54  -1913479.2    
        55  -1913489.9    
        56  -1913466.8    
        57  -1913458.9    
        58  -1913475.6    
        59  -1913466      
        60  -1913462.2    
        61  -1913464.8    
        62  -1913456.5    
        63  -1913470.3    
        64  -1913492.7    
        65  -1913496.9    
        66  -1913496      
        67  -1913518.4    
        68  -1913528.4    
        69  -1913511.7    
        70  -1913528.4    
        71  -1913527.1    
        72  -1913508.6    
        73  -1913499.8    
        74  -1913504.7    
        75  -1913500.1    
        76  -1913486.7    
        77  -1913476.2    
        78  -1913484.1    
        79  -1913484.6    
        80  -1913463.2    
        81  -1913475.2    
        82  -1913490.9    
        83  -1913483.9    
        84  -1913465.6    
        85  -1913460.2    
        86  -1913478      
        87  -1913493      
        88  -1913490.1    
        89  -1913498.1    
        90  -1913509.2    
        91  -1913510.7    
        92  -1913508.8    
        93  -1913493.9    
        94  -1913475.1    
        95  -1913477.2    
        96  -1913495      
        97  -1913507.7    
        98  -1913506.8    
        99  -1913506.9    
       100  -1913503.3    
       101  -1913481.7    
       102  -1913450.3    
       103  -1913448.6    
       104  -1913441.6    
       105  -1913475.7    
       106  -1913489.8    
       107  -1913491.2    
       108  -1913504.1    
       109  -1913510.8    
       110  -1913499      
       111  -1913495.3    
       112  -1913499.7    
       113  -1913496.4    
       114  -1913488.5    
       115  -1913458      
       116  -1913469.7    
       117  -1913455.1    
       118  -1913449.6    
       119  -1913456.6    
       120  -1913462.5    
       121  -1913469.5    
       122  -1913455.1    
       123  -1913467.3    
       124  -1913464.1    
       125  -1913464.5    
       126  -1913454.1    
       127  -1913447.7    
       128  -1913475.7    
       129  -1913497.6    
       130  -1913479.1    
       131  -1913503.6    
       132  -1913505.7    
       133  -1913500.6    
       134  -1913498.6    
       135  -1913495.7    
       136  -1913476.1    
       137  -1913464.2    
       138  -1913464      
       139  -1913468.7    
       140  -1913477.9    
       141  -1913476.3    
       142  -1913477      
       143  -1913466.1    
       144  -1913487      
       145  -1913500.4    
       146  -1913495.3    
       147  -1913497.1    
       148  -1913483.9    
       149  -1913480.8    
       150  -1913480.5    
       151  -1913495.7    
       152  -1913485.9    
       153  -1913486.7    
       154  -1913488.1    
       155  -1913487      
       156  -1913497.7    
       157  -1913493.7    
       158  -1913465.1    
       159  -1913469      
       160  -1913463      
       161  -1913449.6    
       162  -1913458.2    
       163  -1913481.4    
       164  -1913474.2    
       165  -1913476.6    
       166  -1913469.6    
       167  -1913463.7    
       168  -1913461.4    
       169  -1913488.7    
       170  -1913482.1    
       171  -1913483      
       172  -1913486.5    
       173  -1913467.8    
       174  -1913465.8    
       175  -1913481.7    
       176  -1913467.2    
       177  -1913466.4    
       178  -1913481.9    
       179  -1913486.1    
       180  -1913472.8    
       181  -1913464.6    
       182  -1913460.1    
       183  -1913472.7    
       184  -1913484.1    
       185  -1913493      
       186  -1913481.4    
       187  -1913473.7    
       188  -1913480.6    
       189  -1913477.1    
       190  -1913472.2    
       191  -1913484.9    
       192  -1913497.7    
       193  -1913491.9    
       194  -1913494.6    
       195  -1913491.4    
       196  -1913509.1    
       197  -1913488.5    
       198  -1913480.1    
       199  -1913458.1    
       200  -1913449.6    
       201  -1913448      
       202  -1913469.7    
       203  -1913469.4    
       204  -1913488      
       205  -1913490      
       206  -1913474.5    
       207  -1913487.7    
       208  -1913465.9    
       209  -1913479.9    
       210  -1913462      
       211  -1913453      
       212  -1913463      
       213  -1913475.4    
       214  -1913484      
       215  -1913474.1    
       216  -1913457.6    
       217  -1913458.6    
       218  -1913478      
       219  -1913469.3    
       220  -1913478.5    
       221  -1913485.9    
       222  -1913493.5    
       223  -1913488.8    
       224  -1913492.9    
       225  -1913464.9    
       226  -1913464.8    
       227  -1913449.1    
       228  -1913439      
       229  -1913470.1    
       230  -1913474      
       231  -1913467.9    
       232  -1913453.7    
       233  -1913454.5    
       234  -1913473.7    
       235  -1913480.5    
       236  -1913490.5    
       237  -1913474      
       238  -1913475.5    
       239  -1913471.4    
       240  -1913474      
       241  -1913474.8    
       242  -1913472.4    
       243  -1913464.8    
       244  -1913473.5    
       245  -1913461.5    
       246  -1913476.1    
       247  -1913458.6    
       248  -1913480.9    
       249  -1913493.2    
       250  -1913478.1    
       251  -1913477.4    
       252  -1913476.7    
       253  -1913466      
       254  -1913461.8    
       255  -1913469.5    
       256  -1913481.7    
       257  -1913474.1    
       258  -1913455.1    
       259  -1913473      
       260  -1913483.3    
       261  -1913470.7    
       262  -1913474.5    
       263  -1913474.4    
       264  -1913455.9    
       265  -1913477.8    
       266  -1913473.8    
       267  -1913464      
       268  -1913446.6    
       269  -1913433.6    
       270  -1913455.2    
       271  -1913468.4    
       272  -1913474.2    
       273  -1913486.6    
       274  -1913458.3    
       275  -1913470.8    
       276  -1913476.3    
       277  -1913475.2    
       278  -1913472.4    
       279  -1913445.9    
       280  -1913451      
       281  -1913456.5    
       282  -1913469.7    
       283  -1913464.4    
       284  -1913464.6    
       285  -1913459.4    
       286  -1913451.2    
       287  -1913452.9    
       288  -1913465.3    
       289  -1913448.2    
       290  -1913442.1    
       291  -1913444.8    
       292  -1913461.4    
       293  -1913460.4    
       294  -1913465.5    
       295  -1913468.7    
       296  -1913453.1    
       297  -1913467      
       298  -1913479.6    
       299  -1913461.4    
       300  -1913465.1    
       301  -1913487.9    
       302  -1913486.3    
       303  -1913463.6    
       304  -1913455.5    
       305  -1913423.1    
       306  -1913423.3    
       307  -1913443.5    
       308  -1913462.9    
       309  -1913460.6    
       310  -1913468.6    
       311  -1913460.8    
       312  -1913468.6    
       313  -1913476.7    
       314  -1913484.8    
       315  -1913477.4    
       316  -1913463.8    
       317  -1913448.6    
       318  -1913450.7    
       319  -1913460.7    
       320  -1913465.2    
       321  -1913457.3    
       322  -1913462.6    
       323  -1913448.3    
       324  -1913454.7    
       325  -1913461.9    
       326  -1913458.4    
       327  -1913447.7    
       328  -1913451.1    
       329  -1913438.3    
       330  -1913431.9    
       331  -1913417.9    
       332  -1913413.8    
       333  -1913428.2    
       334  -1913429.3    
       335  -1913441.2    
       336  -1913441.1    
       337  -1913425.1    
       338  -1913428.3    
       339  -1913420      
       340  -1913441.3    
       341  -1913439.7    
       342  -1913436.6    
       343  -1913450      
       344  -1913435.8    
       345  -1913432.6    
       346  -1913438.5    
       347  -1913433.1    
       348  -1913428.5    
       349  -1913445      
       350  -1913437.4    
       351  -1913434.1    
       352  -1913451.9    
       353  -1913446.1    
       354  -1913443.3    
       355  -1913428      
       356  -1913456.6    
       357  -1913465.1    
       358  -1913467.3    
       359  -1913460      
       360  -1913453.5    
       361  -1913462      
       362  -1913429.1    
       363  -1913430.9    
       364  -1913455.3    
       365  -1913468.1    
       366  -1913457.9    
       367  -1913443.1    
       368  -1913454.7    
       369  -1913444.7    
       370  -1913465.5    
       371  -1913444      
       372  -1913438.7    
       373  -1913444.2    
       374  -1913456.9    
       375  -1913467.4    
       376  -1913469.6    
       377  -1913448.3    
       378  -1913443.7    
       379  -1913457.9    
       380  -1913440.2    
       381  -1913446.9    
       382  -1913438.9    
       383  -1913434.6    
       384  -1913429.1    
       385  -1913447.6    
       386  -1913456.6    
       387  -1913460.4    
       388  -1913461      
       389  -1913453.1    
       390  -1913452.5    
       391  -1913454.3    
       392  -1913419.4    
       393  -1913442.2    
       394  -1913438      
       395  -1913440.3    
       396  -1913451.9    
       397  -1913443.3    
       398  -1913451.5    
       399  -1913425.3    
       400  -1913433.6    
       401  -1913435      
       402  -1913436.4    
       403  -1913438.6    
       404  -1913447.5    
       405  -1913429.3    
       406  -1913431.4    
       407  -1913443.5    
       408  -1913452.6    
       409  -1913465.4    
       410  -1913453.9    
       411  -1913454.7    
       412  -1913440      
       413  -1913440.8    
       414  -1913448.3    
       415  -1913448.8    
       416  -1913467.5    
       417  -1913446.8    
       418  -1913448.2    
       419  -1913448.5    
       420  -1913427.2    
       421  -1913427.8    
       422  -1913447.7    
       423  -1913460.5    
       424  -1913463.2    
       425  -1913441.3    
       426  -1913425.2    
       427  -1913449.6    
       428  -1913457.9    
       429  -1913468.7    
       430  -1913447.3    
       431  -1913438.5    
       432  -1913458.4    
       433  -1913439      
       434  -1913447.7    
       435  -1913446.6    
       436  -1913462.1    
       437  -1913434.3    
       438  -1913435.3    
       439  -1913442.7    
       440  -1913458.6    
       441  -1913429.3    
       442  -1913438.2    
       443  -1913435.4    
       444  -1913415      
       445  -1913446      
       446  -1913473.7    
       447  -1913463.6    
       448  -1913457.1    
       449  -1913469.7    
       450  -1913446.5    
       451  -1913447.8    
       452  -1913439.4    
       453  -1913437.7    
       454  -1913449.4    
       455  -1913464.7    
       456  -1913465.3    
       457  -1913471.7    
       458  -1913484.8    
       459  -1913465.5    
       460  -1913470.7    
       461  -1913459      
       462  -1913439.8    
       463  -1913437.1    
       464  -1913433.5    
       465  -1913444.8    
       466  -1913461.3    
       467  -1913445.6    
       468  -1913473.9    
       469  -1913458      
       470  -1913436.1    
       471  -1913436.7    
       472  -1913446.4    
       473  -1913452.1    
       474  -1913440.1    
       475  -1913427      
       476  -1913426.5    
       477  -1913430.3    
       478  -1913436.1    
       479  -1913430.9    
       480  -1913434      
       481  -1913436.4    
       482  -1913451.1    
       483  -1913456.9    
       484  -1913454.9    
       485  -1913445.9    
       486  -1913439.7    
       487  -1913426.6    
       488  -1913439      
       489  -1913437.2    
       490  -1913445.5    
       491  -1913448.3    
       492  -1913440.6    
       493  -1913441.2    
       494  -1913429.5    
       495  -1913427.1    
       496  -1913435.8    
       497  -1913432.9    
       498  -1913435.2    
       499  -1913444.5    
       500  -1913413.5    
       501  -1913417.6    
       502  -1913435.8    
       503  -1913441      
       504  -1913446.1    
       505  -1913434.2    
       506  -1913433.9    
       507  -1913444.7    
       508  -1913434.3    
       509  -1913422.2    
       510  -1913421      
       511  -1913416.9    
       512  -1913427.7    
       513  -1913449.9    
       514  -1913450.4    
       515  -1913452.8    
       516  -1913447.3    
       517  -1913437.5    
       518  -1913439.5    
       519  -1913436.5    
       520  -1913446.7    
       521  -1913444      
       522  -1913444.1    
       523  -1913456.8    
       524  -1913432      
       525  -1913430.3    
       526  -1913435.3    
       527  -1913444.1    
       528  -1913438.5    
       529  -1913426.5    
       530  -1913418.4    
       531  -1913424.1    
       532  -1913441.2    
       533  -1913436      
       534  -1913424.4    
       535  -1913426.9    
       536  -1913431.9    
       537  -1913434.5    
       538  -1913426.2    
       539  -1913446.9    
       540  -1913446.2    
       541  -1913437      
       542  -1913427.6    
       543  -1913435.5    
       544  -1913421.8    
       545  -1913443.4    
       546  -1913423.1    
       547  -1913434.8    
       548  -1913437.1    
       549  -1913443.3    
       550  -1913433.6    
       551  -1913426.1    
       552  -1913423.7    
       553  -1913426.2    
       554  -1913427.2    
       555  -1913422.7    
       556  -1913430.9    
       557  -1913445.1    
       558  -1913442.6    
       559  -1913451.4    
       560  -1913447.5    
       561  -1913462.9    
       562  -1913464.6    
       563  -1913476.7    
       564  -1913478.7    
       565  -1913457.2    
       566  -1913442.5    
       567  -1913427      
       568  -1913415.6    
       569  -1913437      
       570  -1913444.4    
       571  -1913447.7    
       572  -1913450.3    
       573  -1913454.2    
       574  -1913455.9    
       575  -1913438.5    
       576  -1913440.3    
       577  -1913433.3    
       578  -1913443.4    
       579  -1913452.6    
       580  -1913442.8    
       581  -1913445.5    
       582  -1913459.2    
       583  -1913453.3    
       584  -1913455      
       585  -1913448.5    
       586  -1913444.7    
       587  -1913437.6    
       588  -1913440.4    
       589  -1913440.1    
       590  -1913440.4    
       591  -1913430.4    
       592  -1913423.1    
       593  -1913421.9    
       594  -1913440.8    
       595  -1913434.3    
       596  -1913421.9    
       597  -1913438.3    
       598  -1913443.7    
       599  -1913443      
       600  -1913448.9    
       601  -1913440.9    
       602  -1913428.9    
       603  -1913429.9    
       604  -1913423.8    
       605  -1913439.3    
       606  -1913462.1    
       607  -1913442.2    
       608  -1913455.1    
       609  -1913458.1    
       610  -1913454.6    
       611  -1913460.3    
       612  -1913452.9    
       613  -1913462.6    
       614  -1913467.3    
       615  -1913464.2    
       616  -1913461.9    
       617  -1913439.6    
       618  -1913448.1    
       619  -1913433.1    
       620  -1913427.6    
       621  -1913428.7    
       622  -1913437.8    
       623  -1913436.3    
       624  -1913432.8    
       625  -1913437.1    
       626  -1913444.9    
       627  -1913446.9    
       628  -1913435.9    
       629  -1913450.5    
       630  -1913434.1    
       631  -1913435.4    
       632  -1913417.5    
       633  -1913415.1    
       634  -1913388.5    
       635  -1913410      
       636  -1913422.1    
       637  -1913430      
       638  -1913435.2    
       639  -1913425.8    
       640  -1913422      
       641  -1913458      
       642  -1913453.1    
       643  -1913441.9    
       644  -1913428.7    
       645  -1913420.9    
       646  -1913412.8    
       647  -1913411      
       648  -1913414.5    
       649  -1913449.9    
       650  -1913462.7    
       651  -1913447.3    
       652  -1913433      
       653  -1913422.4    
       654  -1913429.3    
       655  -1913429.8    
       656  -1913440.9    
       657  -1913455.8    
       658  -1913451.2    
       659  -1913458.1    
       660  -1913447      
       661  -1913440      
       662  -1913438.7    
       663  -1913438.4    
       664  -1913430.3    
       665  -1913426.9    
       666  -1913435.3    
       667  -1913422.3    
       668  -1913445.6    
       669  -1913438.8    
       670  -1913415.8    
       671  -1913405.7    
       672  -1913418.5    
       673  -1913439.2    
       674  -1913434.1    
       675  -1913432.5    
       676  -1913420.4    
       677  -1913419.1    
       678  -1913420.2    
       679  -1913415.8    
       680  -1913405.7    
       681  -1913402.3    
       682  -1913419.3    
       683  -1913431.4    
       684  -1913472.8    
       685  -1913468.6    
       686  -1913444      
       687  -1913460      
       688  -1913452      
       689  -1913454.3    
       690  -1913439.2    
       691  -1913448.6    
       692  -1913442      
       693  -1913444.1    
       694  -1913429.8    
       695  -1913426.9    
       696  -1913425      
       697  -1913449.6    
       698  -1913431.2    
       699  -1913438      
       700  -1913439.6    
       701  -1913428.6    
       702  -1913430.2    
       703  -1913434.7    
       704  -1913433.3    
       705  -1913447.6    
       706  -1913447.3    
       707  -1913452.4    
       708  -1913451.1    
       709  -1913440.7    
       710  -1913434      
       711  -1913425.7    
       712  -1913433.8    
       713  -1913437.1    
       714  -1913424.1    
       715  -1913413.4    
       716  -1913431.1    
       717  -1913427.7    
       718  -1913422.2    
       719  -1913416.4    
       720  -1913418.1    
       721  -1913425.1    
       722  -1913417.6    
       723  -1913424      
       724  -1913429.3    
       725  -1913433.4    
       726  -1913417.5    
       727  -1913409.8    
       728  -1913409.7    
       729  -1913415.5    
       730  -1913436.2    
       731  -1913431.2    
       732  -1913408.5    
       733  -1913398.4    
       734  -1913399.7    
       735  -1913404.1    
       736  -1913429.3    
       737  -1913425.5    
       738  -1913435.6    
       739  -1913442.3    
       740  -1913450      
       741  -1913442.5    
       742  -1913444.3    
       743  -1913427.1    
       744  -1913420.2    
       745  -1913428      
       746  -1913410.9    
       747  -1913424.9    
       748  -1913436      
       749  -1913457.8    
       750  -1913434.1    
       751  -1913430      
       752  -1913424      
       753  -1913420.7    
       754  -1913414.2    
       755  -1913420.1    
       756  -1913429.6    
       757  -1913441      
       758  -1913440.5    
       759  -1913434.6    
       760  -1913423.5    
       761  -1913425.1    
       762  -1913438.8    
       763  -1913449.5    
       764  -1913453.3    
       765  -1913448.2    
       766  -1913450.9    
       767  -1913456.7    
       768  -1913474.7    
       769  -1913465.7    
       770  -1913451.8    
       771  -1913447.5    
       772  -1913421.8    
       773  -1913413.7    
       774  -1913388.6    
       775  -1913423.6    
       776  -1913427.5    
       777  -1913422.7    
       778  -1913405.3    
       779  -1913418      
       780  -1913407.4    
       781  -1913423.3    
       782  -1913419.6    
       783  -1913423.3    
       784  -1913436.2    
       785  -1913432.3    
       786  -1913429.3    
       787  -1913427.2    
       788  -1913424.8    
       789  -1913437.5    
       790  -1913426.6    
       791  -1913434.1    
       792  -1913440.1    
       793  -1913438.8    
       794  -1913434.7    
       795  -1913425.1    
       796  -1913422.8    
       797  -1913424      
       798  -1913428.2    
       799  -1913430.6    
       800  -1913434      
       801  -1913430.3    
       802  -1913429.7    
       803  -1913442      
       804  -1913451.8    
       805  -1913467.2    
       806  -1913452.6    
       807  -1913424.2    
       808  -1913416      
       809  -1913420.7    
       810  -1913407.4    
       811  -1913419.2    
       812  -1913421.1    
       813  -1913411.3    
       814  -1913419.5    
       815  -1913397.4    
       816  -1913426.2    
       817  -1913437.6    
       818  -1913439      
       819  -1913444.3    
       820  -1913429.8    
       821  -1913431.2    
       822  -1913433.1    
       823  -1913434.4    
       824  -1913412.9    
       825  -1913401.5    
       826  -1913412.4    
       827  -1913423.4    
       828  -1913432.2    
       829  -1913427.7    
       830  -1913427.5    
       831  -1913428.5    
       832  -1913425.3    
       833  -1913419.8    
       834  -1913433.1    
       835  -1913408.3    
       836  -1913389.9    
       837  -1913402.6    
       838  -1913398.3    
       839  -1913405.3    
       840  -1913406.8    
       841  -1913428.4    
       842  -1913411.1    
       843  -1913411.9    
       844  -1913413.4    
       845  -1913429.4    
       846  -1913433.3    
       847  -1913431.6    
       848  -1913429.1    
       849  -1913424.1    
       850  -1913407.4    
       851  -1913399      
       852  -1913391.8    
       853  -1913409.1    
       854  -1913410.5    
       855  -1913418.2    
       856  -1913416.4    
       857  -1913413.3    
       858  -1913422.4    
       859  -1913433.2    
       860  -1913443.7    
       861  -1913436.1    
       862  -1913438.8    
       863  -1913441      
       864  -1913428.7    
       865  -1913432.7    
       866  -1913419.9    
       867  -1913412.4    
       868  -1913409.3    
       869  -1913402.9    
       870  -1913404.3    
       871  -1913405.8    
       872  -1913412.3    
       873  -1913405.2    
       874  -1913394.4    
       875  -1913422.3    
       876  -1913424.7    
       877  -1913418.9    
       878  -1913417.7    
       879  -1913408.7    
       880  -1913404.1    
       881  -1913411.2    
       882  -1913421.1    
       883  -1913435.8    
       884  -1913430.1    
       885  -1913414.1    
       886  -1913411.8    
       887  -1913421.5    
       888  -1913421.5    
       889  -1913429.3    
       890  -1913432.8    
       891  -1913433      
       892  -1913410.4    
       893  -1913405.3    
       894  -1913412.9    
       895  -1913388.2    
       896  -1913388.6    
       897  -1913392.7    
       898  -1913395.6    
       899  -1913416.8    
       900  -1913437.7    
       901  -1913423.5    
       902  -1913412.1    
       903  -1913398.4    
       904  -1913413.3    
       905  -1913413.5    
       906  -1913420.7    
       907  -1913415.5    
       908  -1913422.2    
       909  -1913408.1    
       910  -1913410.8    
       911  -1913418.2    
       912  -1913416.4    
       913  -1913440.6    
       914  -1913421.5    
       915  -1913412.7    
       916  -1913410.5    
       917  -1913419.9    
       918  -1913418.2    
       919  -1913417.5    
       920  -1913429.3    
       921  -1913439.5    
       922  -1913448.1    
       923  -1913440.8    
       924  -1913439.8    
       925  -1913425      
       926  -1913410.8    
       927  -1913411.5    
       928  -1913423.2    
       929  -1913408.9    
       930  -1913418.1    
       931  -1913418.8    
       932  -1913439.1    
       933  -1913432.5    
       934  -1913402.4    
       935  -1913404.5    
       936  -1913413.9    
       937  -1913416.3    
       938  -1913421.6    
       939  -1913403.7    
       940  -1913406.8    
       941  -1913411.5    
       942  -1913412.9    
       943  -1913438.9    
       944  -1913422      
       945  -1913398.2    
       946  -1913406.4    
       947  -1913388.7    
       948  -1913403.5    
       949  -1913409      
       950  -1913423.1    
       951  -1913408      
       952  -1913397.9    
       953  -1913407.1    
       954  -1913395.5    
       955  -1913402      
       956  -1913428.4    
       957  -1913424.8    
       958  -1913421.8    
       959  -1913442.7    
       960  -1913443      
       961  -1913437.4    
       962  -1913420.4    
       963  -1913421.7    
       964  -1913420.4    
       965  -1913412.1    
       966  -1913404.8    
       967  -1913407.3    
       968  -1913390.6    
       969  -1913405      
       970  -1913412.1    
       971  -1913400.5    
       972  -1913397.1    
       973  -1913415.8    
       974  -1913415.6    
       975  -1913408.3    
       976  -1913406.4    
       977  -1913410.1    
       978  -1913422.1    
       979  -1913417.9    
       980  -1913396.6    
       981  -1913399      
       982  -1913406.5    
       983  -1913400.4    
       984  -1913405.5    
       985  -1913407.9    
       986  -1913406.2    
       987  -1913415.2    
       988  -1913423.4    
       989  -1913412.1    
       990  -1913417.8    
       991  -1913406.2    
       992  -1913418.9    
       993  -1913441.1    
       994  -1913435.8    
       995  -1913435.2    
       996  -1913440.3    
       997  -1913433.3    
       998  -1913431.6    
       999  -1913419.4    
      1000  -1913419      
Loop time of 219.836 on 1 procs for 1000 steps with 12288 atoms

Performance: 0.197 ns/day, 122.131 hours/ns, 4.549 timesteps/s, 55.896 katom-step/s
100.6% CPU use with 1 MPI tasks x 1 OpenMP threads

MPI task timing breakdown:
Section |  min time  |  avg time  |  max time  |%varavg| %total
---------------------------------------------------------------
Pair    | 61.375     | 61.375     | 61.375     |   0.0 | 27.92
Neigh   | 6.2953     | 6.2953     | 6.2953     |   0.0 |  2.86
Comm    | 0.12154    | 0.12154    | 0.12154    |   0.0 |  0.06
Output  | 0.02138    | 0.02138    | 0.02138    |   0.0 |  0.01
Modify  | 151.97     | 151.97     | 151.97     |   0.0 | 69.13
Other   |            | 0.05097    |            |       |  0.02

Nlocal:          12288 ave       12288 max       12288 min
Histogram: 1 0 0 0 0 0 0 0 0 0
Nghost:          15848 ave       15848 max       15848 min
Histogram: 1 0 0 0 0 0 0 0 0 0
Neighs:              0 ave           0 max           0 min
Histogram: 1 0 0 0 0 0 0 0 0 0
FullNghs:  2.65491e+06 ave 2.65491e+06 max 2.65491e+06 min
Histogram: 1 0 0 0 0 0 0 0 0 0

Total # of neighbors = 2654906
Ave neighs/atom = 216.0568
Neighbor list builds = 100
Dangerous builds not checked
write_data      final.${ibead}
write_data      final.09
System init for write_data ...
Generated 0 of 1 mixed pair_coeff terms from geometric mixing rule

Initializing PI Langevin equation thermostat...
Bead ID    |    omega    |    tau    |    c1    |    c2
    0     0.00000000e+00 1.00000000e+00 9.99750031e-01 2.23578850e-02
    1     2.46383091e+02 2.02936004e-03 8.84094302e-01 4.67308533e-01
    2     4.90393378e+02 1.01958962e-03 7.82550604e-01 6.22586984e-01
    3     7.29680909e+02 6.85231028e-04 6.94307415e-01 7.19678548e-01
    4     9.61941214e+02 5.19782282e-04 6.18183088e-01 7.86034141e-01
    5     1.18493750e+03 4.21963184e-04 5.52960477e-01 8.33207484e-01
    6     1.39652219e+03 3.58032263e-04 4.97449570e-01 8.67492896e-01
    7     1.59465761e+03 3.13546932e-04 4.50530815e-01 8.92760878e-01
    8     1.77743560e+03 2.81304144e-04 4.11182633e-01 9.11552984e-01
    9     1.94309592e+03 2.57321317e-04 3.78496688e-01 9.25602646e-01
    10     2.09004316e+03 2.39229510e-04 3.51684231e-01 9.36118690e-01
    11     2.21686214e+03 2.25544021e-04 3.30076422e-01 9.43954213e-01
    12     2.32233153e+03 2.15300871e-04 3.13120943e-01 9.49713259e-01
    13     2.40543559e+03 2.07862560e-04 3.00376739e-01 9.53820641e-01
    14     2.46537400e+03 2.02808986e-04 2.91508242e-01 9.56568317e-01
    15     2.50156951e+03 1.99874518e-04 2.86280050e-01 9.58145987e-01
    16     2.51367353e+03 1.98912068e-04 2.84552711e-01 9.58660396e-01
    17     2.50156951e+03 1.99874518e-04 2.86280050e-01 9.58145987e-01
    18     2.46537400e+03 2.02808986e-04 2.91508242e-01 9.56568317e-01
    19     2.40543559e+03 2.07862560e-04 3.00376739e-01 9.53820641e-01
    20     2.32233153e+03 2.15300871e-04 3.13120943e-01 9.49713259e-01
    21     2.21686214e+03 2.25544021e-04 3.30076422e-01 9.43954213e-01
    22     2.09004316e+03 2.39229510e-04 3.51684231e-01 9.36118690e-01
    23     1.94309592e+03 2.57321317e-04 3.78496688e-01 9.25602646e-01
    24     1.77743560e+03 2.81304144e-04 4.11182633e-01 9.11552984e-01
    25     1.59465761e+03 3.13546932e-04 4.50530815e-01 8.92760878e-01
    26     1.39652219e+03 3.58032263e-04 4.97449570e-01 8.67492896e-01
    27     1.18493750e+03 4.21963184e-04 5.52960477e-01 8.33207484e-01
    28     9.61941214e+02 5.19782282e-04 6.18183088e-01 7.86034141e-01
    29     7.29680909e+02 6.85231028e-04 6.94307415e-01 7.19678548e-01
    30     4.90393378e+02 1.01958962e-03 7.82550604e-01 6.22586984e-01
    31     2.46383091e+02 2.02936004e-03 8.84094302e-01 4.67308533e-01
PILE_L thermostat successfully initialized!

Total wall time: 0:04:34
