LAMMPS (2 Aug 2023)
Processor partition = 5
OMP_NUM_THREADS environment is not set. Defaulting to 1 thread. (src/comm.cpp:98)
  using 1 OpenMP thread(s) per MPI task
Loaded 1 plugins from /opt/deepmd-kit/lib/deepmd_lmp
clear
OMP_NUM_THREADS environment is not set. Defaulting to 1 thread. (src/comm.cpp:98)
  using 1 OpenMP thread(s) per MPI task
Loaded 1 plugins from /opt/deepmd-kit/lib/deepmd_lmp
# --------------------- VARIABLES-------------------------
variable        ibead           uloop 99 pad
variable        NSTEPS          equal 1000
variable        THERMO_FREQ     equal 1
#variable        DUMP_FREQ       equal 4000
#variable        NREPEAT         equal ${NSTEPS}/${DUMP_FREQ}
variable        TEMP            equal 300.000000
variable        TAU_T           equal 1.000000
# ---------------------- INITIALIZAITION ------------------
units           metal
boundary        p p p
atom_style      atomic
atom_modify     map yes
# --------------------- ATOM DEFINITION ------------------
read_data       /pscratch/sd/y/yifanl/Work/h2o/pimd/initial_config/conf01
Reading data file ...
  orthogonal box = (0 0 0) to (24.76926 24.76926 24.76926)
  1 by 1 by 1 MPI processor grid
  reading atoms ...
  1536 atoms
  read_data CPU = 0.005 seconds
mass            1 16.000000
mass            2 1.000000
replicate       4 4 4
Replication is creating a 4x4x4 = 64 times larger system...
  orthogonal box = (0 0 0) to (99.07704 99.07704 99.07704)
  1 by 1 by 1 MPI processor grid
  98304 atoms
  replicate CPU = 0.006 seconds
# --------------------- FORCE FIELDS ---------------------
pair_style      deepmd /pscratch/sd/y/yifanl/Work/h2o/pimd/benchmark/graph.pb
Summary of lammps deepmd module ...
  >>> Info of deepmd-kit:
  installed to:       /opt/deepmd-kit
  source:             
  source branch:      HEAD
  source commit:      5ec5eae
  source commit at:   2024-02-04 18:53:26 -0500
  support model ver.: 1.1 
  build variant:      cuda
  build with tf inc:  /opt/deepmd-kit/lib/python3.11/site-packages/tensorflow/include;/opt/deepmd-kit/include
  build with tf lib:  /opt/deepmd-kit/lib/python3.11/site-packages/tensorflow/libtensorflow_cc.so.2
  set tf intra_op_parallelism_threads: 0
  set tf inter_op_parallelism_threads: 0
  >>> Info of lammps module:
  use deepmd-kit at:  /opt/deepmd-kitpair_coeff * *
# --------------------- MD SETTINGS ----------------------
neighbor        2.0 bin
neigh_modify    every 10 delay 0 check no
timestep        0.000500
thermo          ${THERMO_FREQ}
thermo          1
thermo_style    custom step pe
#dump            1 all custom ${DUMP_FREQ} ${ibead}.xyz id type x y z
#dump_modify     1 sort id
fix 1 all pimd/langevin ensemble nvt integrator obabo temp ${TEMP} thermostat PILE_L 1234 tau ${TAU_T}
fix 1 all pimd/langevin ensemble nvt integrator obabo temp 300 thermostat PILE_L 1234 tau ${TAU_T}
fix 1 all pimd/langevin ensemble nvt integrator obabo temp 300 thermostat PILE_L 1234 tau 1
# --------------------- RUN ------------------------------
run             ${NSTEPS}
run             1000

CITE-CITE-CITE-CITE-CITE-CITE-CITE-CITE-CITE-CITE-CITE-CITE-CITE

Your simulation uses code contributions which should be cited:

- USER-DEEPMD package:

@article{Wang_ComputPhysCommun_2018_v228_p178,
  author = {Wang, Han and Zhang, Linfeng and Han, Jiequn and E, Weinan},
  doi = {10.1016/j.cpc.2018.03.016},
  url = {https://doi.org/10.1016/j.cpc.2018.03.016},
  year = 2018,
  month = {jul},
  publisher = {Elsevier {BV}},
  volume = 228,
  journal = {Comput. Phys. Commun.},
  title = {{DeePMD-kit: A deep learning package for many-body potential energy representation and molecular dynamics}},
  pages = {178--184}
}
@misc{Zeng_JChemPhys_2023_v159_p054801,
  title  = {{DeePMD-kit v2: A software package for deep potential models}},
  author =   {Jinzhe Zeng and Duo Zhang and Denghui Lu and Pinghui Mo and Zeyu Li
         and Yixiao Chen and Mari{\'a}n Rynik and Li'ang Huang and Ziyao Li and 
         Shaochen Shi and Yingze Wang and Haotian Ye and Ping Tuo and Jiabin
         Yang and Ye Ding and Yifan Li and Davide Tisi and Qiyu Zeng and Han 
         Bao and Yu Xia and Jiameng Huang and Koki Muraoka and Yibo Wang and 
         Junhan Chang and Fengbo Yuan and Sigbj{\o}rn L{\o}land Bore and Chun
         Cai and Yinnian Lin and Bo Wang and Jiayan Xu and Jia-Xin Zhu and 
         Chenxing Luo and Yuzhi Zhang and Rhys E A Goodall and Wenshuo Liang
         and Anurag Kumar Singh and Sikai Yao and Jingchao Zhang and Renata
         Wentzcovitch and Jiequn Han and Jie Liu and Weile Jia and Darrin M
         York and Weinan E and Roberto Car and Linfeng Zhang and Han Wang},
  journal =  {J. Chem. Phys.},
  volume =   159,
  issue =    5,  
  year =    2023,
  pages  =   054801,
  doi =      {10.1063/5.0155600},
}

CITE-CITE-CITE-CITE-CITE-CITE-CITE-CITE-CITE-CITE-CITE-CITE-CITE

Generated 0 of 1 mixed pair_coeff terms from geometric mixing rule

Initializing PI Langevin equation thermostat...
Bead ID    |    omega    |    tau    |    c1    |    c2
    0     0.00000000e+00 1.00000000e+00 9.99750031e-01 2.23578850e-02
    1     2.46383091e+02 2.02936004e-03 8.84094302e-01 4.67308533e-01
    2     4.90393378e+02 1.01958962e-03 7.82550604e-01 6.22586984e-01
    3     7.29680909e+02 6.85231028e-04 6.94307415e-01 7.19678548e-01
    4     9.61941214e+02 5.19782282e-04 6.18183088e-01 7.86034141e-01
    5     1.18493750e+03 4.21963184e-04 5.52960477e-01 8.33207484e-01
    6     1.39652219e+03 3.58032263e-04 4.97449570e-01 8.67492896e-01
    7     1.59465761e+03 3.13546932e-04 4.50530815e-01 8.92760878e-01
    8     1.77743560e+03 2.81304144e-04 4.11182633e-01 9.11552984e-01
    9     1.94309592e+03 2.57321317e-04 3.78496688e-01 9.25602646e-01
    10     2.09004316e+03 2.39229510e-04 3.51684231e-01 9.36118690e-01
    11     2.21686214e+03 2.25544021e-04 3.30076422e-01 9.43954213e-01
    12     2.32233153e+03 2.15300871e-04 3.13120943e-01 9.49713259e-01
    13     2.40543559e+03 2.07862560e-04 3.00376739e-01 9.53820641e-01
    14     2.46537400e+03 2.02808986e-04 2.91508242e-01 9.56568317e-01
    15     2.50156951e+03 1.99874518e-04 2.86280050e-01 9.58145987e-01
    16     2.51367353e+03 1.98912068e-04 2.84552711e-01 9.58660396e-01
    17     2.50156951e+03 1.99874518e-04 2.86280050e-01 9.58145987e-01
    18     2.46537400e+03 2.02808986e-04 2.91508242e-01 9.56568317e-01
    19     2.40543559e+03 2.07862560e-04 3.00376739e-01 9.53820641e-01
    20     2.32233153e+03 2.15300871e-04 3.13120943e-01 9.49713259e-01
    21     2.21686214e+03 2.25544021e-04 3.30076422e-01 9.43954213e-01
    22     2.09004316e+03 2.39229510e-04 3.51684231e-01 9.36118690e-01
    23     1.94309592e+03 2.57321317e-04 3.78496688e-01 9.25602646e-01
    24     1.77743560e+03 2.81304144e-04 4.11182633e-01 9.11552984e-01
    25     1.59465761e+03 3.13546932e-04 4.50530815e-01 8.92760878e-01
    26     1.39652219e+03 3.58032263e-04 4.97449570e-01 8.67492896e-01
    27     1.18493750e+03 4.21963184e-04 5.52960477e-01 8.33207484e-01
    28     9.61941214e+02 5.19782282e-04 6.18183088e-01 7.86034141e-01
    29     7.29680909e+02 6.85231028e-04 6.94307415e-01 7.19678548e-01
    30     4.90393378e+02 1.01958962e-03 7.82550604e-01 6.22586984e-01
    31     2.46383091e+02 2.02936004e-03 8.84094302e-01 4.67308533e-01
PILE_L thermostat successfully initialized!

Neighbor list info ...
  update: every = 10 steps, delay = 0 steps, check = no
  max neighbors/atom: 2000, page size: 100000
  master list distance cutoff = 8
  ghost atom cutoff = 8
  binsize = 4, bins = 25 25 25
  1 neighbor lists, perpetual/occasional/extra = 1 0 0
  (1) pair deepmd, perpetual
      attributes: full, newton on
      pair build: full/bin/atomonly
      stencil: full/bin/3d
      bin: standard
Per MPI rank memory allocation (min/avg/max) = 106.3 | 106.3 | 106.3 Mbytes
   Step         PotEng    
         0  -15314603     
         1  -15312878     
         2  -15311507     
         3  -15310524     
         4  -15309821     
         5  -15309316     
         6  -15308823     
         7  -15308361     
         8  -15307991     
         9  -15307768     
        10  -15307814     
        11  -15307898     
        12  -15307964     
        13  -15308069     
        14  -15308153     
        15  -15308071     
        16  -15307939     
        17  -15307749     
        18  -15307586     
        19  -15307535     
        20  -15307657     
        21  -15307828     
        22  -15308026     
        23  -15308242     
        24  -15308406     
        25  -15308377     
        26  -15308327     
        27  -15308273     
        28  -15308193     
        29  -15308181     
        30  -15308200     
        31  -15308219     
        32  -15308210     
        33  -15308182     
        34  -15308126     
        35  -15308030     
        36  -15307866     
        37  -15307721     
        38  -15307659     
        39  -15307611     
        40  -15307583     
        41  -15307669     
        42  -15307717     
        43  -15307843     
        44  -15307798     
        45  -15307870     
        46  -15307882     
        47  -15307859     
        48  -15307842     
        49  -15307920     
        50  -15307941     
        51  -15308007     
        52  -15307996     
        53  -15307946     
        54  -15307946     
        55  -15307836     
        56  -15307817     
        57  -15307752     
        58  -15307709     
        59  -15307717     
        60  -15307714     
        61  -15307755     
        62  -15307823     
        63  -15307886     
        64  -15307920     
        65  -15307944     
        66  -15307985     
        67  -15308022     
        68  -15308060     
        69  -15308072     
        70  -15308149     
        71  -15308126     
        72  -15308132     
        73  -15308069     
        74  -15308011     
        75  -15307992     
        76  -15307936     
        77  -15307900     
        78  -15307903     
        79  -15307874     
        80  -15307833     
        81  -15307818     
        82  -15307823     
        83  -15307864     
        84  -15307830     
        85  -15307837     
        86  -15307910     
        87  -15307977     
        88  -15308054     
        89  -15308001     
        90  -15307964     
        91  -15307984     
        92  -15308022     
        93  -15308000     
        94  -15307978     
        95  -15307979     
        96  -15307919     
        97  -15307850     
        98  -15307760     
        99  -15307709     
       100  -15307665     
       101  -15307696     
       102  -15307688     
       103  -15307711     
       104  -15307789     
       105  -15307817     
       106  -15307847     
       107  -15307827     
       108  -15307809     
       109  -15307913     
       110  -15307937     
       111  -15308044     
       112  -15307998     
       113  -15307945     
       114  -15307921     
       115  -15307874     
       116  -15307892     
       117  -15307875     
       118  -15307843     
       119  -15307701     
       120  -15307649     
       121  -15307702     
       122  -15307713     
       123  -15307752     
       124  -15307768     
       125  -15307770     
       126  -15307764     
       127  -15307817     
       128  -15307838     
       129  -15307846     
       130  -15307900     
       131  -15307926     
       132  -15307886     
       133  -15307921     
       134  -15307887     
       135  -15307820     
       136  -15307811     
       137  -15307805     
       138  -15307772     
       139  -15307832     
       140  -15307762     
       141  -15307730     
       142  -15307659     
       143  -15307714     
       144  -15307778     
       145  -15307751     
       146  -15307748     
       147  -15307783     
       148  -15307791     
       149  -15307821     
       150  -15307842     
       151  -15307871     
       152  -15307905     
       153  -15308007     
       154  -15307933     
       155  -15307911     
       156  -15307941     
       157  -15307913     
       158  -15307868     
       159  -15307870     
       160  -15307774     
       161  -15307754     
       162  -15307696     
       163  -15307728     
       164  -15307777     
       165  -15307743     
       166  -15307798     
       167  -15307787     
       168  -15307848     
       169  -15307784     
       170  -15307806     
       171  -15307871     
       172  -15307888     
       173  -15307883     
       174  -15307832     
       175  -15307796     
       176  -15307815     
       177  -15307803     
       178  -15307760     
       179  -15307772     
       180  -15307790     
       181  -15307727     
       182  -15307735     
       183  -15307685     
       184  -15307643     
       185  -15307680     
       186  -15307665     
       187  -15307720     
       188  -15307753     
       189  -15307758     
       190  -15307788     
       191  -15307790     
       192  -15307824     
       193  -15307795     
       194  -15307769     
       195  -15307738     
       196  -15307760     
       197  -15307764     
       198  -15307777     
       199  -15307755     
       200  -15307720     
       201  -15307687     
       202  -15307688     
       203  -15307664     
       204  -15307665     
       205  -15307715     
       206  -15307738     
       207  -15307727     
       208  -15307775     
       209  -15307800     
       210  -15307790     
       211  -15307748     
       212  -15307708     
       213  -15307684     
       214  -15307732     
       215  -15307755     
       216  -15307728     
       217  -15307737     
       218  -15307684     
       219  -15307724     
       220  -15307724     
       221  -15307672     
       222  -15307703     
       223  -15307711     
       224  -15307715     
       225  -15307694     
       226  -15307665     
       227  -15307646     
       228  -15307652     
       229  -15307623     
       230  -15307646     
       231  -15307639     
       232  -15307695     
       233  -15307722     
       234  -15307768     
       235  -15307728     
       236  -15307678     
       237  -15307678     
       238  -15307727     
       239  -15307720     
       240  -15307674     
       241  -15307709     
       242  -15307762     
       243  -15307740     
       244  -15307704     
       245  -15307674     
       246  -15307631     
       247  -15307653     
       248  -15307644     
       249  -15307619     
       250  -15307660     
       251  -15307628     
       252  -15307683     
       253  -15307689     
       254  -15307668     
       255  -15307670     
       256  -15307663     
       257  -15307687     
       258  -15307680     
       259  -15307660     
       260  -15307679     
       261  -15307703     
       262  -15307673     
       263  -15307681     
       264  -15307720     
       265  -15307683     
       266  -15307657     
       267  -15307709     
       268  -15307727     
       269  -15307709     
       270  -15307717     
       271  -15307692     
       272  -15307633     
       273  -15307585     
       274  -15307604     
       275  -15307553     
       276  -15307643     
       277  -15307706     
       278  -15307674     
       279  -15307677     
       280  -15307647     
       281  -15307638     
       282  -15307648     
       283  -15307720     
       284  -15307676     
       285  -15307705     
       286  -15307665     
       287  -15307651     
       288  -15307646     
       289  -15307646     
       290  -15307637     
       291  -15307628     
       292  -15307561     
       293  -15307543     
       294  -15307573     
       295  -15307602     
       296  -15307610     
       297  -15307603     
       298  -15307608     
       299  -15307658     
       300  -15307684     
       301  -15307615     
       302  -15307550     
       303  -15307578     
       304  -15307621     
       305  -15307585     
       306  -15307613     
       307  -15307642     
       308  -15307585     
       309  -15307591     
       310  -15307577     
       311  -15307628     
       312  -15307618     
       313  -15307653     
       314  -15307617     
       315  -15307601     
       316  -15307639     
       317  -15307630     
       318  -15307617     
       319  -15307590     
       320  -15307606     
       321  -15307631     
       322  -15307641     
       323  -15307607     
       324  -15307592     
       325  -15307542     
       326  -15307515     
       327  -15307513     
       328  -15307532     
       329  -15307611     
       330  -15307595     
       331  -15307552     
       332  -15307593     
       333  -15307630     
       334  -15307634     
       335  -15307575     
       336  -15307564     
       337  -15307549     
       338  -15307534     
       339  -15307489     
       340  -15307510     
       341  -15307479     
       342  -15307573     
       343  -15307575     
       344  -15307588     
       345  -15307645     
       346  -15307631     
       347  -15307629     
       348  -15307599     
       349  -15307551     
       350  -15307568     
       351  -15307570     
       352  -15307613     
       353  -15307627     
       354  -15307583     
       355  -15307563     
       356  -15307596     
       357  -15307594     
       358  -15307617     
       359  -15307629     
       360  -15307629     
       361  -15307654     
       362  -15307592     
       363  -15307640     
       364  -15307615     
       365  -15307582     
       366  -15307609     
       367  -15307597     
       368  -15307560     
       369  -15307547     
       370  -15307513     
       371  -15307547     
       372  -15307561     
       373  -15307539     
       374  -15307511     
       375  -15307550     
       376  -15307481     
       377  -15307543     
       378  -15307572     
       379  -15307559     
       380  -15307551     
       381  -15307526     
       382  -15307542     
       383  -15307628     
       384  -15307630     
       385  -15307573     
       386  -15307520     
       387  -15307520     
       388  -15307549     
       389  -15307547     
       390  -15307569     
       391  -15307592     
       392  -15307582     
       393  -15307553     
       394  -15307522     
       395  -15307565     
       396  -15307610     
       397  -15307606     
       398  -15307595     
       399  -15307609     
       400  -15307550     
       401  -15307508     
       402  -15307519     
       403  -15307535     
       404  -15307530     
       405  -15307533     
       406  -15307517     
       407  -15307492     
       408  -15307519     
       409  -15307508     
       410  -15307502     
       411  -15307530     
       412  -15307477     
       413  -15307509     
       414  -15307540     
       415  -15307564     
       416  -15307534     
       417  -15307515     
       418  -15307548     
       419  -15307545     
       420  -15307534     
       421  -15307519     
       422  -15307528     
       423  -15307458     
       424  -15307474     
       425  -15307454     
       426  -15307474     
       427  -15307478     
       428  -15307505     
       429  -15307531     
       430  -15307555     
       431  -15307586     
       432  -15307599     
       433  -15307590     
       434  -15307574     
       435  -15307587     
       436  -15307588     
       437  -15307575     
       438  -15307540     
       439  -15307533     
       440  -15307530     
       441  -15307554     
       442  -15307603     
       443  -15307583     
       444  -15307592     
       445  -15307564     
       446  -15307564     
       447  -15307532     
       448  -15307503     
       449  -15307496     
       450  -15307496     
       451  -15307476     
       452  -15307502     
       453  -15307478     
       454  -15307520     
       455  -15307528     
       456  -15307479     
       457  -15307496     
       458  -15307493     
       459  -15307488     
       460  -15307513     
       461  -15307543     
       462  -15307544     
       463  -15307508     
       464  -15307484     
       465  -15307436     
       466  -15307495     
       467  -15307531     
       468  -15307530     
       469  -15307538     
       470  -15307544     
       471  -15307519     
       472  -15307555     
       473  -15307530     
       474  -15307519     
       475  -15307521     
       476  -15307584     
       477  -15307579     
       478  -15307564     
       479  -15307579     
       480  -15307505     
       481  -15307473     
       482  -15307519     
       483  -15307544     
       484  -15307545     
       485  -15307555     
       486  -15307608     
       487  -15307600     
       488  -15307550     
       489  -15307468     
       490  -15307507     
       491  -15307531     
       492  -15307561     
       493  -15307543     
       494  -15307570     
       495  -15307592     
       496  -15307590     
       497  -15307618     
       498  -15307600     
       499  -15307559     
       500  -15307589     
       501  -15307570     
       502  -15307538     
       503  -15307460     
       504  -15307474     
       505  -15307484     
       506  -15307536     
       507  -15307523     
       508  -15307527     
       509  -15307532     
       510  -15307529     
       511  -15307570     
       512  -15307570     
       513  -15307494     
       514  -15307549     
       515  -15307556     
       516  -15307629     
       517  -15307649     
       518  -15307614     
       519  -15307551     
       520  -15307565     
       521  -15307520     
       522  -15307509     
       523  -15307535     
       524  -15307503     
       525  -15307494     
       526  -15307444     
       527  -15307447     
       528  -15307508     
       529  -15307534     
       530  -15307510     
       531  -15307501     
       532  -15307491     
       533  -15307439     
       534  -15307473     
       535  -15307444     
       536  -15307499     
       537  -15307512     
       538  -15307484     
       539  -15307555     
       540  -15307537     
       541  -15307534     
       542  -15307515     
       543  -15307517     
       544  -15307514     
       545  -15307512     
       546  -15307489     
       547  -15307516     
       548  -15307542     
       549  -15307544     
       550  -15307554     
       551  -15307549     
       552  -15307602     
       553  -15307594     
       554  -15307576     
       555  -15307570     
       556  -15307602     
       557  -15307612     
       558  -15307554     
       559  -15307560     
       560  -15307568     
       561  -15307573     
       562  -15307538     
       563  -15307462     
       564  -15307469     
       565  -15307501     
       566  -15307518     
       567  -15307500     
       568  -15307459     
       569  -15307468     
       570  -15307461     
       571  -15307495     
       572  -15307452     
       573  -15307459     
       574  -15307568     
       575  -15307475     
       576  -15307521     
       577  -15307579     
       578  -15307514     
       579  -15307557     
       580  -15307529     
       581  -15307512     
       582  -15307468     
       583  -15307452     
       584  -15307449     
       585  -15307475     
       586  -15307557     
       587  -15307528     
       588  -15307519     
       589  -15307507     
       590  -15307453     
       591  -15307437     
       592  -15307420     
       593  -15307460     
       594  -15307526     
       595  -15307520     
       596  -15307498     
       597  -15307462     
       598  -15307472     
       599  -15307511     
       600  -15307557     
       601  -15307529     
       602  -15307535     
       603  -15307501     
       604  -15307524     
       605  -15307533     
       606  -15307580     
       607  -15307525     
       608  -15307498     
       609  -15307462     
       610  -15307463     
       611  -15307413     
       612  -15307520     
       613  -15307470     
       614  -15307499     
       615  -15307464     
       616  -15307519     
       617  -15307547     
       618  -15307593     
       619  -15307548     
       620  -15307518     
       621  -15307538     
       622  -15307509     
       623  -15307503     
       624  -15307468     
       625  -15307539     
       626  -15307510     
       627  -15307564     
       628  -15307540     
       629  -15307511     
       630  -15307500     
       631  -15307504     
       632  -15307514     
       633  -15307508     
       634  -15307492     
       635  -15307472     
       636  -15307499     
       637  -15307442     
       638  -15307474     
       639  -15307523     
       640  -15307534     
       641  -15307505     
       642  -15307480     
       643  -15307444     
       644  -15307384     
       645  -15307370     
       646  -15307431     
       647  -15307465     
       648  -15307484     
       649  -15307500     
       650  -15307507     
       651  -15307498     
       652  -15307495     
       653  -15307510     
       654  -15307471     
       655  -15307465     
       656  -15307503     
       657  -15307549     
       658  -15307520     
       659  -15307473     
       660  -15307436     
       661  -15307420     
       662  -15307454     
       663  -15307465     
       664  -15307473     
       665  -15307453     
       666  -15307513     
       667  -15307504     
       668  -15307461     
       669  -15307440     
       670  -15307452     
       671  -15307464     
       672  -15307448     
       673  -15307455     
       674  -15307405     
       675  -15307428     
       676  -15307490     
       677  -15307449     
       678  -15307434     
       679  -15307509     
       680  -15307488     
       681  -15307446     
       682  -15307425     
       683  -15307431     
       684  -15307356     
       685  -15307368     
       686  -15307410     
       687  -15307446     
       688  -15307386     
       689  -15307332     
       690  -15307336     
       691  -15307392     
       692  -15307378     
       693  -15307349     
       694  -15307340     
       695  -15307398     
       696  -15307460     
       697  -15307425     
       698  -15307412     
       699  -15307447     
       700  -15307437     
       701  -15307503     
       702  -15307457     
       703  -15307430     
       704  -15307343     
       705  -15307342     
       706  -15307351     
       707  -15307398     
       708  -15307345     
       709  -15307384     
       710  -15307389     
       711  -15307334     
       712  -15307344     
       713  -15307359     
       714  -15307356     
       715  -15307318     
       716  -15307396     
       717  -15307476     
       718  -15307472     
       719  -15307436     
       720  -15307404     
       721  -15307406     
       722  -15307416     
       723  -15307380     
       724  -15307371     
       725  -15307350     
       726  -15307362     
       727  -15307336     
       728  -15307346     
       729  -15307393     
       730  -15307408     
       731  -15307412     
       732  -15307399     
       733  -15307418     
       734  -15307390     
       735  -15307344     
       736  -15307388     
       737  -15307405     
       738  -15307473     
       739  -15307452     
       740  -15307418     
       741  -15307395     
       742  -15307317     
       743  -15307348     
       744  -15307319     
       745  -15307343     
       746  -15307366     
       747  -15307353     
       748  -15307379     
       749  -15307367     
       750  -15307371     
       751  -15307304     
       752  -15307328     
       753  -15307289     
       754  -15307283     
       755  -15307292     
       756  -15307282     
       757  -15307291     
       758  -15307332     
       759  -15307346     
       760  -15307396     
       761  -15307403     
       762  -15307390     
       763  -15307363     
       764  -15307331     
       765  -15307379     
       766  -15307373     
       767  -15307346     
       768  -15307333     
       769  -15307342     
       770  -15307315     
       771  -15307385     
       772  -15307406     
       773  -15307380     
       774  -15307362     
       775  -15307364     
       776  -15307358     
       777  -15307373     
       778  -15307407     
       779  -15307458     
       780  -15307437     
       781  -15307414     
       782  -15307455     
       783  -15307412     
       784  -15307432     
       785  -15307376     
       786  -15307334     
       787  -15307416     
       788  -15307476     
       789  -15307419     
       790  -15307388     
       791  -15307361     
       792  -15307370     
       793  -15307345     
       794  -15307380     
       795  -15307385     
       796  -15307352     
       797  -15307356     
       798  -15307397     
       799  -15307360     
       800  -15307438     
       801  -15307369     
       802  -15307333     
       803  -15307349     
       804  -15307390     
       805  -15307401     
       806  -15307393     
       807  -15307371     
       808  -15307353     
       809  -15307369     
       810  -15307367     
       811  -15307389     
       812  -15307350     
       813  -15307354     
       814  -15307309     
       815  -15307327     
       816  -15307311     
       817  -15307291     
       818  -15307253     
       819  -15307320     
       820  -15307349     
       821  -15307341     
       822  -15307350     
       823  -15307385     
       824  -15307429     
       825  -15307408     
       826  -15307385     
       827  -15307346     
       828  -15307377     
       829  -15307369     
       830  -15307392     
       831  -15307447     
       832  -15307449     
       833  -15307416     
       834  -15307384     
       835  -15307405     
       836  -15307421     
       837  -15307356     
       838  -15307401     
       839  -15307402     
       840  -15307363     
       841  -15307349     
       842  -15307367     
       843  -15307345     
       844  -15307352     
       845  -15307379     
       846  -15307412     
       847  -15307390     
       848  -15307414     
       849  -15307377     
       850  -15307375     
       851  -15307317     
       852  -15307347     
       853  -15307317     
       854  -15307290     
       855  -15307322     
       856  -15307351     
       857  -15307350     
       858  -15307381     
       859  -15307312     
       860  -15307334     
       861  -15307371     
       862  -15307338     
       863  -15307286     
       864  -15307310     
       865  -15307379     
       866  -15307405     
       867  -15307384     
       868  -15307380     
       869  -15307369     
       870  -15307398     
       871  -15307395     
       872  -15307414     
       873  -15307388     
       874  -15307338     
       875  -15307357     
       876  -15307390     
       877  -15307385     
       878  -15307407     
       879  -15307395     
       880  -15307411     
       881  -15307370     
       882  -15307381     
       883  -15307340     
       884  -15307329     
       885  -15307370     
       886  -15307378     
       887  -15307386     
       888  -15307377     
       889  -15307436     
       890  -15307407     
       891  -15307377     
       892  -15307321     
       893  -15307321     
       894  -15307366     
       895  -15307380     
       896  -15307395     
       897  -15307423     
       898  -15307420     
       899  -15307410     
       900  -15307397     
       901  -15307391     
       902  -15307394     
       903  -15307403     
       904  -15307347     
       905  -15307366     
       906  -15307386     
       907  -15307389     
       908  -15307376     
       909  -15307392     
       910  -15307412     
       911  -15307411     
       912  -15307350     
       913  -15307291     
       914  -15307342     
       915  -15307405     
       916  -15307431     
       917  -15307444     
       918  -15307403     
       919  -15307415     
       920  -15307415     
       921  -15307398     
       922  -15307383     
       923  -15307387     
       924  -15307350     
       925  -15307382     
       926  -15307414     
       927  -15307387     
       928  -15307339     
       929  -15307368     
       930  -15307296     
       931  -15307306     
       932  -15307306     
       933  -15307329     
       934  -15307350     
       935  -15307375     
       936  -15307329     
       937  -15307310     
       938  -15307337     
       939  -15307350     
       940  -15307358     
       941  -15307374     
       942  -15307348     
       943  -15307344     
       944  -15307353     
       945  -15307370     
       946  -15307339     
       947  -15307358     
       948  -15307380     
       949  -15307337     
       950  -15307315     
       951  -15307330     
       952  -15307302     
       953  -15307397     
       954  -15307409     
       955  -15307373     
       956  -15307386     
       957  -15307384     
       958  -15307343     
       959  -15307380     
       960  -15307332     
       961  -15307347     
       962  -15307371     
       963  -15307403     
       964  -15307372     
       965  -15307399     
       966  -15307418     
       967  -15307415     
       968  -15307358     
       969  -15307326     
       970  -15307325     
       971  -15307372     
       972  -15307373     
       973  -15307376     
       974  -15307374     
       975  -15307358     
       976  -15307339     
       977  -15307377     
       978  -15307422     
       979  -15307415     
       980  -15307443     
       981  -15307419     
       982  -15307403     
       983  -15307362     
       984  -15307375     
       985  -15307398     
       986  -15307410     
       987  -15307407     
       988  -15307394     
       989  -15307397     
       990  -15307391     
       991  -15307377     
       992  -15307377     
       993  -15307355     
       994  -15307360     
       995  -15307375     
       996  -15307395     
       997  -15307439     
       998  -15307400     
       999  -15307383     
      1000  -15307384     
Loop time of 749.775 on 1 procs for 1000 steps with 98304 atoms

Performance: 0.058 ns/day, 416.541 hours/ns, 1.334 timesteps/s, 131.111 katom-step/s
80.7% CPU use with 1 MPI tasks x 1 OpenMP threads

MPI task timing breakdown:
Section |  min time  |  avg time  |  max time  |%varavg| %total
---------------------------------------------------------------
Pair    | 112.3      | 112.3      | 112.3      |   0.0 | 14.98
Neigh   | 45.781     | 45.781     | 45.781     |   0.0 |  6.11
Comm    | 0.49993    | 0.49993    | 0.49993    |   0.0 |  0.07
Output  | 0.022823   | 0.022823   | 0.022823   |   0.0 |  0.00
Modify  | 590.88     | 590.88     | 590.88     |   0.0 | 78.81
Other   |            | 0.283      |            |       |  0.04

Nlocal:          98304 ave       98304 max       98304 min
Histogram: 1 0 0 0 0 0 0 0 0 0
Nghost:          54580 ave       54580 max       54580 min
Histogram: 1 0 0 0 0 0 0 0 0 0
Neighs:              0 ave           0 max           0 min
Histogram: 1 0 0 0 0 0 0 0 0 0
FullNghs:  2.12476e+07 ave 2.12476e+07 max 2.12476e+07 min
Histogram: 1 0 0 0 0 0 0 0 0 0

Total # of neighbors = 21247596
Ave neighs/atom = 216.14172
Neighbor list builds = 100
Dangerous builds not checked
write_data      final.${ibead}
write_data      final.06
System init for write_data ...
Generated 0 of 1 mixed pair_coeff terms from geometric mixing rule

Initializing PI Langevin equation thermostat...
Bead ID    |    omega    |    tau    |    c1    |    c2
    0     0.00000000e+00 1.00000000e+00 9.99750031e-01 2.23578850e-02
    1     2.46383091e+02 2.02936004e-03 8.84094302e-01 4.67308533e-01
    2     4.90393378e+02 1.01958962e-03 7.82550604e-01 6.22586984e-01
    3     7.29680909e+02 6.85231028e-04 6.94307415e-01 7.19678548e-01
    4     9.61941214e+02 5.19782282e-04 6.18183088e-01 7.86034141e-01
    5     1.18493750e+03 4.21963184e-04 5.52960477e-01 8.33207484e-01
    6     1.39652219e+03 3.58032263e-04 4.97449570e-01 8.67492896e-01
    7     1.59465761e+03 3.13546932e-04 4.50530815e-01 8.92760878e-01
    8     1.77743560e+03 2.81304144e-04 4.11182633e-01 9.11552984e-01
    9     1.94309592e+03 2.57321317e-04 3.78496688e-01 9.25602646e-01
    10     2.09004316e+03 2.39229510e-04 3.51684231e-01 9.36118690e-01
    11     2.21686214e+03 2.25544021e-04 3.30076422e-01 9.43954213e-01
    12     2.32233153e+03 2.15300871e-04 3.13120943e-01 9.49713259e-01
    13     2.40543559e+03 2.07862560e-04 3.00376739e-01 9.53820641e-01
    14     2.46537400e+03 2.02808986e-04 2.91508242e-01 9.56568317e-01
    15     2.50156951e+03 1.99874518e-04 2.86280050e-01 9.58145987e-01
    16     2.51367353e+03 1.98912068e-04 2.84552711e-01 9.58660396e-01
    17     2.50156951e+03 1.99874518e-04 2.86280050e-01 9.58145987e-01
    18     2.46537400e+03 2.02808986e-04 2.91508242e-01 9.56568317e-01
    19     2.40543559e+03 2.07862560e-04 3.00376739e-01 9.53820641e-01
    20     2.32233153e+03 2.15300871e-04 3.13120943e-01 9.49713259e-01
    21     2.21686214e+03 2.25544021e-04 3.30076422e-01 9.43954213e-01
    22     2.09004316e+03 2.39229510e-04 3.51684231e-01 9.36118690e-01
    23     1.94309592e+03 2.57321317e-04 3.78496688e-01 9.25602646e-01
    24     1.77743560e+03 2.81304144e-04 4.11182633e-01 9.11552984e-01
    25     1.59465761e+03 3.13546932e-04 4.50530815e-01 8.92760878e-01
    26     1.39652219e+03 3.58032263e-04 4.97449570e-01 8.67492896e-01
    27     1.18493750e+03 4.21963184e-04 5.52960477e-01 8.33207484e-01
    28     9.61941214e+02 5.19782282e-04 6.18183088e-01 7.86034141e-01
    29     7.29680909e+02 6.85231028e-04 6.94307415e-01 7.19678548e-01
    30     4.90393378e+02 1.01958962e-03 7.82550604e-01 6.22586984e-01
    31     2.46383091e+02 2.02936004e-03 8.84094302e-01 4.67308533e-01
PILE_L thermostat successfully initialized!

Total wall time: 0:12:56
