LAMMPS (2 Aug 2023)
Processor partition = 8
OMP_NUM_THREADS environment is not set. Defaulting to 1 thread. (src/comm.cpp:98)
  using 1 OpenMP thread(s) per MPI task
Loaded 1 plugins from /opt/deepmd-kit/lib/deepmd_lmp
clear
OMP_NUM_THREADS environment is not set. Defaulting to 1 thread. (src/comm.cpp:98)
  using 1 OpenMP thread(s) per MPI task
Loaded 1 plugins from /opt/deepmd-kit/lib/deepmd_lmp
# --------------------- VARIABLES-------------------------
variable        ibead           uloop 99 pad
variable        NSTEPS          equal 1000
variable        THERMO_FREQ     equal 1
#variable        DUMP_FREQ       equal 4000
#variable        NREPEAT         equal ${NSTEPS}/${DUMP_FREQ}
variable        TEMP            equal 300.000000
variable        TAU_T           equal 1.000000
# ---------------------- INITIALIZAITION ------------------
units           metal
boundary        p p p
atom_style      atomic
atom_modify     map yes
# --------------------- ATOM DEFINITION ------------------
read_data       /pscratch/sd/y/yifanl/Work/h2o/pimd/initial_config/conf01
Reading data file ...
  orthogonal box = (0 0 0) to (24.76926 24.76926 24.76926)
  1 by 1 by 1 MPI processor grid
  reading atoms ...
  1536 atoms
  read_data CPU = 0.005 seconds
mass            1 16.000000
mass            2 1.000000
replicate       4 4 4
Replication is creating a 4x4x4 = 64 times larger system...
  orthogonal box = (0 0 0) to (99.07704 99.07704 99.07704)
  1 by 1 by 1 MPI processor grid
  98304 atoms
  replicate CPU = 0.006 seconds
# --------------------- FORCE FIELDS ---------------------
pair_style      deepmd /pscratch/sd/y/yifanl/Work/h2o/pimd/benchmark/graph.pb
Summary of lammps deepmd module ...
  >>> Info of deepmd-kit:
  installed to:       /opt/deepmd-kit
  source:             
  source branch:      HEAD
  source commit:      5ec5eae
  source commit at:   2024-02-04 18:53:26 -0500
  support model ver.: 1.1 
  build variant:      cuda
  build with tf inc:  /opt/deepmd-kit/lib/python3.11/site-packages/tensorflow/include;/opt/deepmd-kit/include
  build with tf lib:  /opt/deepmd-kit/lib/python3.11/site-packages/tensorflow/libtensorflow_cc.so.2
  set tf intra_op_parallelism_threads: 0
  set tf inter_op_parallelism_threads: 0
  >>> Info of lammps module:
  use deepmd-kit at:  /opt/deepmd-kitpair_coeff * *
# --------------------- MD SETTINGS ----------------------
neighbor        2.0 bin
neigh_modify    every 10 delay 0 check no
timestep        0.000500
thermo          ${THERMO_FREQ}
thermo          1
thermo_style    custom step pe
#dump            1 all custom ${DUMP_FREQ} ${ibead}.xyz id type x y z
#dump_modify     1 sort id
fix 1 all pimd/langevin ensemble nvt integrator obabo temp ${TEMP} thermostat PILE_L 1234 tau ${TAU_T}
fix 1 all pimd/langevin ensemble nvt integrator obabo temp 300 thermostat PILE_L 1234 tau ${TAU_T}
fix 1 all pimd/langevin ensemble nvt integrator obabo temp 300 thermostat PILE_L 1234 tau 1
# --------------------- RUN ------------------------------
run             ${NSTEPS}
run             1000

CITE-CITE-CITE-CITE-CITE-CITE-CITE-CITE-CITE-CITE-CITE-CITE-CITE

Your simulation uses code contributions which should be cited:

- USER-DEEPMD package:

@article{Wang_ComputPhysCommun_2018_v228_p178,
  author = {Wang, Han and Zhang, Linfeng and Han, Jiequn and E, Weinan},
  doi = {10.1016/j.cpc.2018.03.016},
  url = {https://doi.org/10.1016/j.cpc.2018.03.016},
  year = 2018,
  month = {jul},
  publisher = {Elsevier {BV}},
  volume = 228,
  journal = {Comput. Phys. Commun.},
  title = {{DeePMD-kit: A deep learning package for many-body potential energy representation and molecular dynamics}},
  pages = {178--184}
}
@misc{Zeng_JChemPhys_2023_v159_p054801,
  title  = {{DeePMD-kit v2: A software package for deep potential models}},
  author =   {Jinzhe Zeng and Duo Zhang and Denghui Lu and Pinghui Mo and Zeyu Li
         and Yixiao Chen and Mari{\'a}n Rynik and Li'ang Huang and Ziyao Li and 
         Shaochen Shi and Yingze Wang and Haotian Ye and Ping Tuo and Jiabin
         Yang and Ye Ding and Yifan Li and Davide Tisi and Qiyu Zeng and Han 
         Bao and Yu Xia and Jiameng Huang and Koki Muraoka and Yibo Wang and 
         Junhan Chang and Fengbo Yuan and Sigbj{\o}rn L{\o}land Bore and Chun
         Cai and Yinnian Lin and Bo Wang and Jiayan Xu and Jia-Xin Zhu and 
         Chenxing Luo and Yuzhi Zhang and Rhys E A Goodall and Wenshuo Liang
         and Anurag Kumar Singh and Sikai Yao and Jingchao Zhang and Renata
         Wentzcovitch and Jiequn Han and Jie Liu and Weile Jia and Darrin M
         York and Weinan E and Roberto Car and Linfeng Zhang and Han Wang},
  journal =  {J. Chem. Phys.},
  volume =   159,
  issue =    5,  
  year =    2023,
  pages  =   054801,
  doi =      {10.1063/5.0155600},
}

CITE-CITE-CITE-CITE-CITE-CITE-CITE-CITE-CITE-CITE-CITE-CITE-CITE

Generated 0 of 1 mixed pair_coeff terms from geometric mixing rule

Initializing PI Langevin equation thermostat...
Bead ID    |    omega    |    tau    |    c1    |    c2
    0     0.00000000e+00 1.00000000e+00 9.99750031e-01 2.23578850e-02
    1     2.46383091e+02 2.02936004e-03 8.84094302e-01 4.67308533e-01
    2     4.90393378e+02 1.01958962e-03 7.82550604e-01 6.22586984e-01
    3     7.29680909e+02 6.85231028e-04 6.94307415e-01 7.19678548e-01
    4     9.61941214e+02 5.19782282e-04 6.18183088e-01 7.86034141e-01
    5     1.18493750e+03 4.21963184e-04 5.52960477e-01 8.33207484e-01
    6     1.39652219e+03 3.58032263e-04 4.97449570e-01 8.67492896e-01
    7     1.59465761e+03 3.13546932e-04 4.50530815e-01 8.92760878e-01
    8     1.77743560e+03 2.81304144e-04 4.11182633e-01 9.11552984e-01
    9     1.94309592e+03 2.57321317e-04 3.78496688e-01 9.25602646e-01
    10     2.09004316e+03 2.39229510e-04 3.51684231e-01 9.36118690e-01
    11     2.21686214e+03 2.25544021e-04 3.30076422e-01 9.43954213e-01
    12     2.32233153e+03 2.15300871e-04 3.13120943e-01 9.49713259e-01
    13     2.40543559e+03 2.07862560e-04 3.00376739e-01 9.53820641e-01
    14     2.46537400e+03 2.02808986e-04 2.91508242e-01 9.56568317e-01
    15     2.50156951e+03 1.99874518e-04 2.86280050e-01 9.58145987e-01
    16     2.51367353e+03 1.98912068e-04 2.84552711e-01 9.58660396e-01
    17     2.50156951e+03 1.99874518e-04 2.86280050e-01 9.58145987e-01
    18     2.46537400e+03 2.02808986e-04 2.91508242e-01 9.56568317e-01
    19     2.40543559e+03 2.07862560e-04 3.00376739e-01 9.53820641e-01
    20     2.32233153e+03 2.15300871e-04 3.13120943e-01 9.49713259e-01
    21     2.21686214e+03 2.25544021e-04 3.30076422e-01 9.43954213e-01
    22     2.09004316e+03 2.39229510e-04 3.51684231e-01 9.36118690e-01
    23     1.94309592e+03 2.57321317e-04 3.78496688e-01 9.25602646e-01
    24     1.77743560e+03 2.81304144e-04 4.11182633e-01 9.11552984e-01
    25     1.59465761e+03 3.13546932e-04 4.50530815e-01 8.92760878e-01
    26     1.39652219e+03 3.58032263e-04 4.97449570e-01 8.67492896e-01
    27     1.18493750e+03 4.21963184e-04 5.52960477e-01 8.33207484e-01
    28     9.61941214e+02 5.19782282e-04 6.18183088e-01 7.86034141e-01
    29     7.29680909e+02 6.85231028e-04 6.94307415e-01 7.19678548e-01
    30     4.90393378e+02 1.01958962e-03 7.82550604e-01 6.22586984e-01
    31     2.46383091e+02 2.02936004e-03 8.84094302e-01 4.67308533e-01
PILE_L thermostat successfully initialized!

Neighbor list info ...
  update: every = 10 steps, delay = 0 steps, check = no
  max neighbors/atom: 2000, page size: 100000
  master list distance cutoff = 8
  ghost atom cutoff = 8
  binsize = 4, bins = 25 25 25
  1 neighbor lists, perpetual/occasional/extra = 1 0 0
  (1) pair deepmd, perpetual
      attributes: full, newton on
      pair build: full/bin/atomonly
      stencil: full/bin/3d
      bin: standard
Per MPI rank memory allocation (min/avg/max) = 106.3 | 106.3 | 106.3 Mbytes
   Step         PotEng    
         0  -15314603     
         1  -15312881     
         2  -15311508     
         3  -15310562     
         4  -15309867     
         5  -15309241     
         6  -15308777     
         7  -15308329     
         8  -15307980     
         9  -15307795     
        10  -15307798     
        11  -15307839     
        12  -15307979     
        13  -15308059     
        14  -15308002     
        15  -15308000     
        16  -15307869     
        17  -15307719     
        18  -15307575     
        19  -15307520     
        20  -15307625     
        21  -15307749     
        22  -15308022     
        23  -15308279     
        24  -15308390     
        25  -15308406     
        26  -15308345     
        27  -15308324     
        28  -15308250     
        29  -15308252     
        30  -15308267     
        31  -15308277     
        32  -15308234     
        33  -15308144     
        34  -15308096     
        35  -15307974     
        36  -15307796     
        37  -15307694     
        38  -15307618     
        39  -15307556     
        40  -15307617     
        41  -15307713     
        42  -15307722     
        43  -15307811     
        44  -15307852     
        45  -15307812     
        46  -15307805     
        47  -15307879     
        48  -15307865     
        49  -15307878     
        50  -15307949     
        51  -15307923     
        52  -15307996     
        53  -15307954     
        54  -15307929     
        55  -15307889     
        56  -15307772     
        57  -15307700     
        58  -15307696     
        59  -15307727     
        60  -15307786     
        61  -15307851     
        62  -15307837     
        63  -15307876     
        64  -15307946     
        65  -15307981     
        66  -15308027     
        67  -15308124     
        68  -15308179     
        69  -15308142     
        70  -15308062     
        71  -15308068     
        72  -15308073     
        73  -15308030     
        74  -15308006     
        75  -15307946     
        76  -15307910     
        77  -15307900     
        78  -15307869     
        79  -15307854     
        80  -15307784     
        81  -15307722     
        82  -15307715     
        83  -15307735     
        84  -15307831     
        85  -15307958     
        86  -15308026     
        87  -15308067     
        88  -15308089     
        89  -15308026     
        90  -15308040     
        91  -15308017     
        92  -15307976     
        93  -15307918     
        94  -15307923     
        95  -15307954     
        96  -15307893     
        97  -15307850     
        98  -15307822     
        99  -15307806     
       100  -15307756     
       101  -15307801     
       102  -15307769     
       103  -15307812     
       104  -15307834     
       105  -15307847     
       106  -15307852     
       107  -15307859     
       108  -15307914     
       109  -15307940     
       110  -15307896     
       111  -15307896     
       112  -15307929     
       113  -15307887     
       114  -15307850     
       115  -15307897     
       116  -15307804     
       117  -15307776     
       118  -15307745     
       119  -15307742     
       120  -15307710     
       121  -15307765     
       122  -15307747     
       123  -15307792     
       124  -15307767     
       125  -15307803     
       126  -15307793     
       127  -15307821     
       128  -15307818     
       129  -15307837     
       130  -15307900     
       131  -15307860     
       132  -15307837     
       133  -15307816     
       134  -15307792     
       135  -15307815     
       136  -15307782     
       137  -15307777     
       138  -15307743     
       139  -15307740     
       140  -15307763     
       141  -15307781     
       142  -15307749     
       143  -15307739     
       144  -15307760     
       145  -15307778     
       146  -15307854     
       147  -15307805     
       148  -15307772     
       149  -15307827     
       150  -15307816     
       151  -15307855     
       152  -15307873     
       153  -15307882     
       154  -15307886     
       155  -15307914     
       156  -15307884     
       157  -15307872     
       158  -15307869     
       159  -15307897     
       160  -15307902     
       161  -15307833     
       162  -15307819     
       163  -15307819     
       164  -15307825     
       165  -15307790     
       166  -15307770     
       167  -15307797     
       168  -15307813     
       169  -15307825     
       170  -15307874     
       171  -15307866     
       172  -15307951     
       173  -15307924     
       174  -15307870     
       175  -15307879     
       176  -15307899     
       177  -15307859     
       178  -15307837     
       179  -15307881     
       180  -15307793     
       181  -15307736     
       182  -15307694     
       183  -15307691     
       184  -15307722     
       185  -15307757     
       186  -15307739     
       187  -15307714     
       188  -15307768     
       189  -15307750     
       190  -15307702     
       191  -15307669     
       192  -15307762     
       193  -15307795     
       194  -15307847     
       195  -15307830     
       196  -15307810     
       197  -15307790     
       198  -15307810     
       199  -15307735     
       200  -15307759     
       201  -15307753     
       202  -15307719     
       203  -15307698     
       204  -15307670     
       205  -15307707     
       206  -15307654     
       207  -15307607     
       208  -15307637     
       209  -15307654     
       210  -15307679     
       211  -15307722     
       212  -15307709     
       213  -15307698     
       214  -15307727     
       215  -15307707     
       216  -15307733     
       217  -15307820     
       218  -15307856     
       219  -15307789     
       220  -15307808     
       221  -15307755     
       222  -15307705     
       223  -15307713     
       224  -15307714     
       225  -15307701     
       226  -15307648     
       227  -15307683     
       228  -15307721     
       229  -15307678     
       230  -15307633     
       231  -15307682     
       232  -15307683     
       233  -15307720     
       234  -15307716     
       235  -15307649     
       236  -15307682     
       237  -15307726     
       238  -15307673     
       239  -15307677     
       240  -15307617     
       241  -15307580     
       242  -15307614     
       243  -15307672     
       244  -15307661     
       245  -15307682     
       246  -15307686     
       247  -15307714     
       248  -15307692     
       249  -15307687     
       250  -15307662     
       251  -15307669     
       252  -15307674     
       253  -15307707     
       254  -15307688     
       255  -15307734     
       256  -15307742     
       257  -15307658     
       258  -15307625     
       259  -15307651     
       260  -15307593     
       261  -15307604     
       262  -15307658     
       263  -15307721     
       264  -15307668     
       265  -15307627     
       266  -15307614     
       267  -15307548     
       268  -15307578     
       269  -15307615     
       270  -15307633     
       271  -15307616     
       272  -15307602     
       273  -15307631     
       274  -15307664     
       275  -15307691     
       276  -15307616     
       277  -15307646     
       278  -15307673     
       279  -15307658     
       280  -15307686     
       281  -15307670     
       282  -15307666     
       283  -15307683     
       284  -15307691     
       285  -15307651     
       286  -15307632     
       287  -15307668     
       288  -15307672     
       289  -15307664     
       290  -15307646     
       291  -15307693     
       292  -15307695     
       293  -15307679     
       294  -15307682     
       295  -15307685     
       296  -15307678     
       297  -15307697     
       298  -15307699     
       299  -15307711     
       300  -15307679     
       301  -15307665     
       302  -15307626     
       303  -15307607     
       304  -15307615     
       305  -15307565     
       306  -15307679     
       307  -15307643     
       308  -15307598     
       309  -15307617     
       310  -15307655     
       311  -15307626     
       312  -15307600     
       313  -15307595     
       314  -15307566     
       315  -15307557     
       316  -15307605     
       317  -15307664     
       318  -15307661     
       319  -15307607     
       320  -15307614     
       321  -15307627     
       322  -15307524     
       323  -15307549     
       324  -15307627     
       325  -15307641     
       326  -15307618     
       327  -15307599     
       328  -15307534     
       329  -15307509     
       330  -15307588     
       331  -15307577     
       332  -15307539     
       333  -15307508     
       334  -15307557     
       335  -15307566     
       336  -15307523     
       337  -15307555     
       338  -15307567     
       339  -15307587     
       340  -15307608     
       341  -15307597     
       342  -15307593     
       343  -15307526     
       344  -15307516     
       345  -15307529     
       346  -15307580     
       347  -15307620     
       348  -15307588     
       349  -15307552     
       350  -15307587     
       351  -15307557     
       352  -15307554     
       353  -15307581     
       354  -15307513     
       355  -15307575     
       356  -15307557     
       357  -15307585     
       358  -15307621     
       359  -15307623     
       360  -15307579     
       361  -15307598     
       362  -15307587     
       363  -15307553     
       364  -15307583     
       365  -15307628     
       366  -15307651     
       367  -15307662     
       368  -15307598     
       369  -15307562     
       370  -15307538     
       371  -15307584     
       372  -15307561     
       373  -15307517     
       374  -15307497     
       375  -15307513     
       376  -15307487     
       377  -15307497     
       378  -15307528     
       379  -15307561     
       380  -15307562     
       381  -15307551     
       382  -15307524     
       383  -15307532     
       384  -15307552     
       385  -15307521     
       386  -15307514     
       387  -15307498     
       388  -15307458     
       389  -15307464     
       390  -15307523     
       391  -15307560     
       392  -15307546     
       393  -15307519     
       394  -15307510     
       395  -15307500     
       396  -15307558     
       397  -15307558     
       398  -15307578     
       399  -15307569     
       400  -15307517     
       401  -15307530     
       402  -15307457     
       403  -15307471     
       404  -15307499     
       405  -15307508     
       406  -15307567     
       407  -15307548     
       408  -15307547     
       409  -15307548     
       410  -15307534     
       411  -15307456     
       412  -15307443     
       413  -15307476     
       414  -15307497     
       415  -15307533     
       416  -15307507     
       417  -15307542     
       418  -15307589     
       419  -15307573     
       420  -15307571     
       421  -15307584     
       422  -15307568     
       423  -15307582     
       424  -15307562     
       425  -15307568     
       426  -15307571     
       427  -15307535     
       428  -15307538     
       429  -15307546     
       430  -15307531     
       431  -15307503     
       432  -15307514     
       433  -15307547     
       434  -15307547     
       435  -15307550     
       436  -15307556     
       437  -15307571     
       438  -15307556     
       439  -15307573     
       440  -15307581     
       441  -15307565     
       442  -15307605     
       443  -15307562     
       444  -15307535     
       445  -15307525     
       446  -15307584     
       447  -15307577     
       448  -15307569     
       449  -15307574     
       450  -15307564     
       451  -15307576     
       452  -15307585     
       453  -15307646     
       454  -15307612     
       455  -15307543     
       456  -15307527     
       457  -15307576     
       458  -15307584     
       459  -15307604     
       460  -15307536     
       461  -15307547     
       462  -15307561     
       463  -15307544     
       464  -15307572     
       465  -15307593     
       466  -15307614     
       467  -15307637     
       468  -15307643     
       469  -15307615     
       470  -15307614     
       471  -15307551     
       472  -15307564     
       473  -15307539     
       474  -15307507     
       475  -15307581     
       476  -15307562     
       477  -15307502     
       478  -15307522     
       479  -15307520     
       480  -15307544     
       481  -15307540     
       482  -15307537     
       483  -15307502     
       484  -15307513     
       485  -15307549     
       486  -15307543     
       487  -15307545     
       488  -15307496     
       489  -15307523     
       490  -15307579     
       491  -15307593     
       492  -15307618     
       493  -15307603     
       494  -15307560     
       495  -15307520     
       496  -15307498     
       497  -15307483     
       498  -15307574     
       499  -15307543     
       500  -15307581     
       501  -15307592     
       502  -15307499     
       503  -15307532     
       504  -15307595     
       505  -15307554     
       506  -15307546     
       507  -15307517     
       508  -15307492     
       509  -15307540     
       510  -15307549     
       511  -15307550     
       512  -15307541     
       513  -15307550     
       514  -15307583     
       515  -15307582     
       516  -15307543     
       517  -15307483     
       518  -15307478     
       519  -15307520     
       520  -15307544     
       521  -15307578     
       522  -15307578     
       523  -15307586     
       524  -15307544     
       525  -15307509     
       526  -15307468     
       527  -15307479     
       528  -15307565     
       529  -15307570     
       530  -15307573     
       531  -15307526     
       532  -15307574     
       533  -15307524     
       534  -15307476     
       535  -15307511     
       536  -15307475     
       537  -15307468     
       538  -15307447     
       539  -15307438     
       540  -15307474     
       541  -15307536     
       542  -15307519     
       543  -15307535     
       544  -15307592     
       545  -15307601     
       546  -15307611     
       547  -15307576     
       548  -15307544     
       549  -15307559     
       550  -15307571     
       551  -15307503     
       552  -15307488     
       553  -15307480     
       554  -15307487     
       555  -15307545     
       556  -15307516     
       557  -15307554     
       558  -15307534     
       559  -15307543     
       560  -15307549     
       561  -15307536     
       562  -15307536     
       563  -15307522     
       564  -15307502     
       565  -15307598     
       566  -15307560     
       567  -15307577     
       568  -15307541     
       569  -15307578     
       570  -15307574     
       571  -15307540     
       572  -15307485     
       573  -15307540     
       574  -15307512     
       575  -15307586     
       576  -15307576     
       577  -15307573     
       578  -15307596     
       579  -15307569     
       580  -15307576     
       581  -15307535     
       582  -15307513     
       583  -15307505     
       584  -15307525     
       585  -15307545     
       586  -15307574     
       587  -15307531     
       588  -15307564     
       589  -15307517     
       590  -15307500     
       591  -15307519     
       592  -15307500     
       593  -15307492     
       594  -15307482     
       595  -15307577     
       596  -15307527     
       597  -15307496     
       598  -15307494     
       599  -15307476     
       600  -15307472     
       601  -15307499     
       602  -15307504     
       603  -15307500     
       604  -15307474     
       605  -15307428     
       606  -15307463     
       607  -15307502     
       608  -15307529     
       609  -15307452     
       610  -15307440     
       611  -15307471     
       612  -15307505     
       613  -15307520     
       614  -15307524     
       615  -15307485     
       616  -15307453     
       617  -15307477     
       618  -15307503     
       619  -15307535     
       620  -15307541     
       621  -15307576     
       622  -15307610     
       623  -15307638     
       624  -15307518     
       625  -15307480     
       626  -15307472     
       627  -15307499     
       628  -15307483     
       629  -15307451     
       630  -15307434     
       631  -15307488     
       632  -15307502     
       633  -15307526     
       634  -15307477     
       635  -15307449     
       636  -15307439     
       637  -15307507     
       638  -15307514     
       639  -15307489     
       640  -15307449     
       641  -15307469     
       642  -15307448     
       643  -15307372     
       644  -15307400     
       645  -15307461     
       646  -15307449     
       647  -15307488     
       648  -15307512     
       649  -15307523     
       650  -15307418     
       651  -15307473     
       652  -15307474     
       653  -15307447     
       654  -15307394     
       655  -15307385     
       656  -15307438     
       657  -15307472     
       658  -15307478     
       659  -15307485     
       660  -15307482     
       661  -15307482     
       662  -15307440     
       663  -15307458     
       664  -15307437     
       665  -15307433     
       666  -15307435     
       667  -15307420     
       668  -15307415     
       669  -15307451     
       670  -15307474     
       671  -15307435     
       672  -15307475     
       673  -15307422     
       674  -15307468     
       675  -15307463     
       676  -15307448     
       677  -15307451     
       678  -15307458     
       679  -15307470     
       680  -15307491     
       681  -15307495     
       682  -15307451     
       683  -15307437     
       684  -15307421     
       685  -15307457     
       686  -15307527     
       687  -15307474     
       688  -15307442     
       689  -15307394     
       690  -15307412     
       691  -15307415     
       692  -15307442     
       693  -15307467     
       694  -15307469     
       695  -15307386     
       696  -15307411     
       697  -15307391     
       698  -15307402     
       699  -15307413     
       700  -15307442     
       701  -15307449     
       702  -15307449     
       703  -15307435     
       704  -15307422     
       705  -15307425     
       706  -15307424     
       707  -15307450     
       708  -15307416     
       709  -15307409     
       710  -15307348     
       711  -15307408     
       712  -15307393     
       713  -15307333     
       714  -15307372     
       715  -15307395     
       716  -15307354     
       717  -15307408     
       718  -15307394     
       719  -15307429     
       720  -15307461     
       721  -15307453     
       722  -15307406     
       723  -15307371     
       724  -15307368     
       725  -15307352     
       726  -15307430     
       727  -15307416     
       728  -15307401     
       729  -15307383     
       730  -15307404     
       731  -15307405     
       732  -15307371     
       733  -15307341     
       734  -15307361     
       735  -15307414     
       736  -15307430     
       737  -15307348     
       738  -15307344     
       739  -15307338     
       740  -15307344     
       741  -15307374     
       742  -15307378     
       743  -15307320     
       744  -15307293     
       745  -15307342     
       746  -15307331     
       747  -15307338     
       748  -15307347     
       749  -15307398     
       750  -15307354     
       751  -15307388     
       752  -15307382     
       753  -15307320     
       754  -15307335     
       755  -15307370     
       756  -15307369     
       757  -15307393     
       758  -15307381     
       759  -15307407     
       760  -15307400     
       761  -15307359     
       762  -15307432     
       763  -15307403     
       764  -15307419     
       765  -15307387     
       766  -15307317     
       767  -15307356     
       768  -15307340     
       769  -15307359     
       770  -15307362     
       771  -15307326     
       772  -15307342     
       773  -15307370     
       774  -15307351     
       775  -15307345     
       776  -15307384     
       777  -15307437     
       778  -15307407     
       779  -15307385     
       780  -15307387     
       781  -15307413     
       782  -15307453     
       783  -15307357     
       784  -15307360     
       785  -15307406     
       786  -15307395     
       787  -15307399     
       788  -15307366     
       789  -15307290     
       790  -15307342     
       791  -15307310     
       792  -15307339     
       793  -15307337     
       794  -15307347     
       795  -15307351     
       796  -15307387     
       797  -15307352     
       798  -15307325     
       799  -15307356     
       800  -15307397     
       801  -15307361     
       802  -15307321     
       803  -15307343     
       804  -15307364     
       805  -15307336     
       806  -15307318     
       807  -15307319     
       808  -15307357     
       809  -15307343     
       810  -15307370     
       811  -15307355     
       812  -15307336     
       813  -15307336     
       814  -15307358     
       815  -15307355     
       816  -15307390     
       817  -15307328     
       818  -15307415     
       819  -15307418     
       820  -15307353     
       821  -15307403     
       822  -15307394     
       823  -15307381     
       824  -15307365     
       825  -15307350     
       826  -15307417     
       827  -15307408     
       828  -15307366     
       829  -15307371     
       830  -15307395     
       831  -15307416     
       832  -15307432     
       833  -15307375     
       834  -15307343     
       835  -15307337     
       836  -15307344     
       837  -15307379     
       838  -15307431     
       839  -15307369     
       840  -15307340     
       841  -15307359     
       842  -15307379     
       843  -15307322     
       844  -15307365     
       845  -15307389     
       846  -15307474     
       847  -15307455     
       848  -15307465     
       849  -15307449     
       850  -15307422     
       851  -15307425     
       852  -15307461     
       853  -15307411     
       854  -15307429     
       855  -15307333     
       856  -15307373     
       857  -15307331     
       858  -15307323     
       859  -15307365     
       860  -15307310     
       861  -15307333     
       862  -15307372     
       863  -15307345     
       864  -15307368     
       865  -15307378     
       866  -15307421     
       867  -15307448     
       868  -15307373     
       869  -15307365     
       870  -15307392     
       871  -15307401     
       872  -15307455     
       873  -15307456     
       874  -15307422     
       875  -15307425     
       876  -15307428     
       877  -15307382     
       878  -15307344     
       879  -15307359     
       880  -15307376     
       881  -15307354     
       882  -15307352     
       883  -15307307     
       884  -15307350     
       885  -15307369     
       886  -15307378     
       887  -15307418     
       888  -15307410     
       889  -15307379     
       890  -15307375     
       891  -15307368     
       892  -15307398     
       893  -15307373     
       894  -15307395     
       895  -15307410     
       896  -15307402     
       897  -15307396     
       898  -15307368     
       899  -15307404     
       900  -15307368     
       901  -15307361     
       902  -15307298     
       903  -15307341     
       904  -15307326     
       905  -15307416     
       906  -15307419     
       907  -15307420     
       908  -15307403     
       909  -15307376     
       910  -15307405     
       911  -15307323     
       912  -15307353     
       913  -15307308     
       914  -15307364     
       915  -15307351     
       916  -15307376     
       917  -15307386     
       918  -15307404     
       919  -15307417     
       920  -15307366     
       921  -15307331     
       922  -15307324     
       923  -15307355     
       924  -15307388     
       925  -15307412     
       926  -15307357     
       927  -15307349     
       928  -15307348     
       929  -15307334     
       930  -15307345     
       931  -15307369     
       932  -15307315     
       933  -15307344     
       934  -15307349     
       935  -15307368     
       936  -15307395     
       937  -15307365     
       938  -15307324     
       939  -15307309     
       940  -15307345     
       941  -15307369     
       942  -15307311     
       943  -15307340     
       944  -15307351     
       945  -15307366     
       946  -15307358     
       947  -15307424     
       948  -15307433     
       949  -15307397     
       950  -15307429     
       951  -15307382     
       952  -15307376     
       953  -15307354     
       954  -15307331     
       955  -15307364     
       956  -15307371     
       957  -15307388     
       958  -15307371     
       959  -15307424     
       960  -15307402     
       961  -15307337     
       962  -15307383     
       963  -15307391     
       964  -15307409     
       965  -15307394     
       966  -15307288     
       967  -15307290     
       968  -15307330     
       969  -15307365     
       970  -15307322     
       971  -15307329     
       972  -15307381     
       973  -15307337     
       974  -15307360     
       975  -15307374     
       976  -15307369     
       977  -15307371     
       978  -15307328     
       979  -15307361     
       980  -15307353     
       981  -15307373     
       982  -15307422     
       983  -15307457     
       984  -15307433     
       985  -15307431     
       986  -15307389     
       987  -15307361     
       988  -15307380     
       989  -15307364     
       990  -15307372     
       991  -15307356     
       992  -15307318     
       993  -15307327     
       994  -15307286     
       995  -15307324     
       996  -15307322     
       997  -15307327     
       998  -15307316     
       999  -15307304     
      1000  -15307333     
Loop time of 749.775 on 1 procs for 1000 steps with 98304 atoms

Performance: 0.058 ns/day, 416.541 hours/ns, 1.334 timesteps/s, 131.111 katom-step/s
66.1% CPU use with 1 MPI tasks x 1 OpenMP threads

MPI task timing breakdown:
Section |  min time  |  avg time  |  max time  |%varavg| %total
---------------------------------------------------------------
Pair    | 112.62     | 112.62     | 112.62     |   0.0 | 15.02
Neigh   | 45.863     | 45.863     | 45.863     |   0.0 |  6.12
Comm    | 0.49638    | 0.49638    | 0.49638    |   0.0 |  0.07
Output  | 0.019142   | 0.019142   | 0.019142   |   0.0 |  0.00
Modify  | 590.51     | 590.51     | 590.51     |   0.0 | 78.76
Other   |            | 0.2691     |            |       |  0.04

Nlocal:          98304 ave       98304 max       98304 min
Histogram: 1 0 0 0 0 0 0 0 0 0
Nghost:          54618 ave       54618 max       54618 min
Histogram: 1 0 0 0 0 0 0 0 0 0
Neighs:              0 ave           0 max           0 min
Histogram: 1 0 0 0 0 0 0 0 0 0
FullNghs:  2.12483e+07 ave 2.12483e+07 max 2.12483e+07 min
Histogram: 1 0 0 0 0 0 0 0 0 0

Total # of neighbors = 21248276
Ave neighs/atom = 216.14864
Neighbor list builds = 100
Dangerous builds not checked
write_data      final.${ibead}
write_data      final.09
System init for write_data ...
Generated 0 of 1 mixed pair_coeff terms from geometric mixing rule

Initializing PI Langevin equation thermostat...
Bead ID    |    omega    |    tau    |    c1    |    c2
    0     0.00000000e+00 1.00000000e+00 9.99750031e-01 2.23578850e-02
    1     2.46383091e+02 2.02936004e-03 8.84094302e-01 4.67308533e-01
    2     4.90393378e+02 1.01958962e-03 7.82550604e-01 6.22586984e-01
    3     7.29680909e+02 6.85231028e-04 6.94307415e-01 7.19678548e-01
    4     9.61941214e+02 5.19782282e-04 6.18183088e-01 7.86034141e-01
    5     1.18493750e+03 4.21963184e-04 5.52960477e-01 8.33207484e-01
    6     1.39652219e+03 3.58032263e-04 4.97449570e-01 8.67492896e-01
    7     1.59465761e+03 3.13546932e-04 4.50530815e-01 8.92760878e-01
    8     1.77743560e+03 2.81304144e-04 4.11182633e-01 9.11552984e-01
    9     1.94309592e+03 2.57321317e-04 3.78496688e-01 9.25602646e-01
    10     2.09004316e+03 2.39229510e-04 3.51684231e-01 9.36118690e-01
    11     2.21686214e+03 2.25544021e-04 3.30076422e-01 9.43954213e-01
    12     2.32233153e+03 2.15300871e-04 3.13120943e-01 9.49713259e-01
    13     2.40543559e+03 2.07862560e-04 3.00376739e-01 9.53820641e-01
    14     2.46537400e+03 2.02808986e-04 2.91508242e-01 9.56568317e-01
    15     2.50156951e+03 1.99874518e-04 2.86280050e-01 9.58145987e-01
    16     2.51367353e+03 1.98912068e-04 2.84552711e-01 9.58660396e-01
    17     2.50156951e+03 1.99874518e-04 2.86280050e-01 9.58145987e-01
    18     2.46537400e+03 2.02808986e-04 2.91508242e-01 9.56568317e-01
    19     2.40543559e+03 2.07862560e-04 3.00376739e-01 9.53820641e-01
    20     2.32233153e+03 2.15300871e-04 3.13120943e-01 9.49713259e-01
    21     2.21686214e+03 2.25544021e-04 3.30076422e-01 9.43954213e-01
    22     2.09004316e+03 2.39229510e-04 3.51684231e-01 9.36118690e-01
    23     1.94309592e+03 2.57321317e-04 3.78496688e-01 9.25602646e-01
    24     1.77743560e+03 2.81304144e-04 4.11182633e-01 9.11552984e-01
    25     1.59465761e+03 3.13546932e-04 4.50530815e-01 8.92760878e-01
    26     1.39652219e+03 3.58032263e-04 4.97449570e-01 8.67492896e-01
    27     1.18493750e+03 4.21963184e-04 5.52960477e-01 8.33207484e-01
    28     9.61941214e+02 5.19782282e-04 6.18183088e-01 7.86034141e-01
    29     7.29680909e+02 6.85231028e-04 6.94307415e-01 7.19678548e-01
    30     4.90393378e+02 1.01958962e-03 7.82550604e-01 6.22586984e-01
    31     2.46383091e+02 2.02936004e-03 8.84094302e-01 4.67308533e-01
PILE_L thermostat successfully initialized!

Total wall time: 0:12:56
