384
# CELL(abcABC): 15.545660 15.545660 15.545660 90.0 90.0 90.0 Traj: positions{angstrom} cell{angstrom} Step: 12000 Bead: 0
O      -0.660260000000000     -4.690390000000000     11.409300000000000
O      11.140599999999999      5.760040000000000     14.748400000000000
O      10.205900000000000      9.919689999999999      9.342660000000000
O       5.414100000000000     -0.056109000000000     11.864800000000001
O      13.916900000000000     16.373600000000000     16.805399999999999
O       4.056550000000000     -4.781410000000000      3.155640000000000
O      12.846600000000000     -1.307390000000000     -0.141770000000000
O      -1.088230000000000     14.855600000000001     10.941900000000000
O      -1.797510000000000     -2.930000000000000      7.295930000000000
O       2.801530000000000     10.113000000000000     -1.241530000000000
O      16.250200000000000     -2.044070000000000      7.182720000000000
O       2.009680000000000     11.754600000000000      9.102800000000000
O       8.112109999999999      6.225080000000000      2.922720000000000
O      17.509599999999999     -1.143430000000000      4.037480000000000
O      15.207400000000000      5.032400000000000      8.609299999999999
O      10.298600000000000     -2.149160000000000     12.277500000000000
O      10.369700000000000     19.434000000000001     16.836700000000000
O       6.497960000000000      1.554160000000000      0.536923000000000
O      10.258699999999999      5.646110000000000      4.145940000000000
O      18.636399999999998     10.035299999999999     -3.877800000000000
O      -4.829130000000000     18.606600000000000      8.245889999999999
O      13.662900000000000     -8.284090000000001      9.334989999999999
O      13.353400000000001     18.856999999999999      7.861290000000000
O       1.597890000000000     12.672000000000001     -0.790220000000000
O       9.613220000000000      4.705360000000000      9.959949999999999
O      -1.852460000000000     12.640100000000000      9.963100000000001
O       4.742000000000000      7.030800000000000      5.167570000000000
O       1.245850000000000      5.186500000000000      6.448670000000000
O      32.726900000000001     14.671600000000000     -3.925170000000000
O      10.625100000000000      9.894860000000000     14.633800000000001
O       4.527830000000000      8.714960000000000      7.429540000000000
O     -10.009100000000000     19.430099999999999      7.848880000000000
O       5.721630000000000      4.425430000000000      0.108123000000000
O       3.864900000000000      6.483980000000000     -1.860050000000000
O      10.030900000000001      3.222860000000000      5.563700000000000
O       6.336520000000000     16.200399999999998      7.081630000000000
O       2.961720000000000     17.960500000000000     -1.296580000000000
O       4.084420000000000      3.963700000000000     18.114899999999999
O       6.016010000000000     14.806100000000001     -1.018310000000000
O      11.948499999999999      9.273070000000001     17.178300000000000
O      -2.202820000000000      9.145910000000001      7.264040000000000
O      15.456500000000000     17.520800000000001     -0.542763000000000
O      -2.631930000000000     12.894100000000000      4.011860000000000
O      13.614800000000001     10.347799999999999     13.715000000000000
O      22.170999999999999     -3.614710000000000      6.722000000000000
O      13.836700000000000     16.337100000000000      8.337190000000000
O       4.152930000000000     -1.672060000000000     10.066800000000001
O       8.709300000000001     14.531300000000000      4.238440000000000
O       3.699140000000000      0.983265000000000     16.342600000000001
O      11.025100000000000     12.330600000000000     10.053200000000000
O      -1.073800000000000     14.985500000000000     19.421900000000001
O      12.060300000000000     -1.016380000000000      6.585660000000000
O       7.831900000000000     11.338300000000000      2.038080000000000
O       3.726100000000000      1.949120000000000      5.189880000000000
O       7.330160000000000      6.798580000000000     15.876700000000000
O      13.957000000000001     10.921300000000000      2.304860000000000
O      -7.195170000000000      0.078263900000000     11.823600000000001
O      14.988700000000000      1.325630000000000      5.845960000000000
O      -1.401900000000000      5.768940000000000     14.804399999999999
O       6.623230000000000      9.227240000000000      0.873062000000000
O      12.620400000000000     -0.603608000000000     12.750900000000000
O       3.890150000000000      4.665630000000000      6.152270000000000
O       8.059089999999999      8.770479999999999     19.516400000000001
O       4.900790000000000     11.023500000000000     -0.140585000000000
O      17.575199999999999      1.112130000000000      2.814470000000000
O      -5.179070000000000     12.759300000000000      3.206270000000000
O      -3.122570000000000      7.020740000000000      2.716060000000000
O      -8.923840000000000      4.373920000000000     13.061000000000000
O      12.004300000000001     17.356300000000001     11.395799999999999
O       6.339960000000000     10.404100000000000     13.086900000000000
O      15.964100000000000      9.890370000000001      7.130560000000000
O       7.992110000000000     14.193700000000000      6.894460000000000
O       7.721460000000000     13.307000000000000     15.614900000000000
O       1.474670000000000     15.396200000000000     14.197500000000000
O      -0.520962000000000      5.530060000000000      4.490200000000000
O      10.666399999999999      7.709720000000000     -2.631390000000000
O       3.951560000000000     -0.794752000000000      7.179280000000000
O       7.815510000000000      5.752610000000000      8.143030000000000
O      10.070900000000000     -1.263370000000000      8.446540000000001
O       8.215690000000000      6.335400000000000     -2.422520000000000
O      17.006200000000000      4.485200000000000     -0.409774000000000
O       8.719849999999999     -3.883440000000000     13.542899999999999
O       1.552490000000000     -3.591790000000000     12.239200000000000
O      10.692600000000001      9.474370000000000      6.656100000000000
O       4.245160000000000      8.288280000000000      2.852100000000000
O       9.185409999999999      7.170170000000000     21.623500000000000
O       6.346550000000000      7.976700000000000     12.244300000000001
O      17.446300000000001     16.805099999999999      6.990850000000000
O       1.879430000000000     23.089600000000001     -0.616704000000000
O       5.110580000000000      4.286060000000000     10.721500000000001
O       5.990190000000000      1.571330000000000      3.359660000000000
O      -1.086280000000000     11.989599999999999     -0.141038000000000
O      17.300300000000000     -4.316040000000000      5.198170000000000
O       7.424860000000000     10.513299999999999     -6.353920000000000
O      18.181500000000000     12.851699999999999     17.444600000000001
O      -0.193288000000000      8.328170000000000     11.198000000000000
O       8.911530000000001      2.226730000000000     -2.092540000000000
O      19.776900000000001     -2.111480000000000     20.588000000000001
O      14.316300000000000     19.268500000000000     -2.490170000000000
O      -2.017380000000000      3.549380000000000     20.691800000000001
O       3.857670000000000     17.614400000000000     11.532900000000000
O      -6.316350000000000      1.412650000000000      0.501534000000000
O       5.037060000000000     13.522700000000000      0.975568000000000
O      16.206399999999999     19.513700000000000     10.711499999999999
O       6.183570000000000     14.575799999999999      3.402130000000000
O       4.188030000000000     11.402400000000000     22.902100000000001
O       1.908200000000000      7.658770000000000     -7.795620000000000
O      10.909800000000001      7.306260000000000     25.518100000000000
O       6.468610000000000     10.881300000000000      4.291190000000000
O       5.292910000000000     11.502100000000000     10.552700000000000
O       7.285730000000000      2.666540000000000      5.341200000000000
O      -9.087400000000001      7.831300000000000      9.109059999999999
O       0.425339000000000      9.671500000000000      3.395800000000000
O      10.573399999999999     -5.480170000000000      3.847540000000000
O      14.007700000000000      8.035230000000000      4.709640000000000
O       1.688310000000000      5.107240000000000     18.176500000000001
O      -0.561986000000000      8.091730000000000     13.733900000000000
O      13.920700000000000     20.436499999999999     17.535100000000000
O      10.228500000000000     -1.366530000000000      0.847883000000000
O      18.243200000000002     21.225100000000001     11.622700000000000
O      10.020000000000000      0.944008000000000      9.934740000000000
O      17.823699999999999      7.944490000000000     -5.268020000000000
O       1.735170000000000      7.889350000000000      1.932110000000000
O      10.782600000000000      0.744987000000000      4.666060000000000
O       6.094980000000000      4.823160000000000      3.963720000000000
O      17.249800000000000      1.308720000000000      9.784150000000000
O      10.779700000000000      4.163180000000000     12.142500000000000
O      -3.425920000000000     18.097700000000000    -12.642400000000000
H      -1.278330000000000     -4.750330000000000     12.121700000000001
H      -1.186120000000000     -4.281890000000000     10.665800000000001
H      12.076900000000000      5.835310000000000     15.051900000000000
H      -4.626810000000000      5.217640000000000     15.501500000000000
H      10.348400000000000      9.933669999999999      8.297300000000000
H      10.458299999999999      8.964130000000001      9.671340000000001
H       4.863230000000000      0.791705000000000     11.733000000000001
H       5.050880000000000     -0.412995000000000     11.008699999999999
H      14.482799999999999     16.026700000000002     17.655700000000000
H      14.535200000000000     16.878399999999999     16.256900000000002
H       5.101460000000000     -4.574240000000000      3.541420000000000
H       3.481600000000000     -4.621350000000000      3.919610000000000
H      13.362900000000000     -0.641793000000000      0.402305000000000
H      13.295999999999999     -2.092790000000000      0.116448000000000
H      -2.044600000000000     15.349700000000000     11.417000000000000
H      -0.412429000000000     15.578300000000000     11.115600000000001
H      -0.725731000000000     -2.543580000000000      7.176280000000000
H      -2.496430000000000     -2.234500000000000      6.888330000000000
H       3.319200000000000      9.754750000000000     -2.089090000000000
H       2.368230000000000      9.263550000000000     -1.105980000000000
H      16.717400000000001     -2.624660000000000      7.815100000000000
H      16.750599999999999     -1.385290000000000      6.654730000000000
H       2.968470000000000     11.885500000000000      8.693790000000000
H       2.099080000000000     12.346900000000000     10.016900000000000
H       7.138180000000000      5.704290000000000      3.168380000000000
H       7.999970000000000      6.220340000000000      2.029900000000000
H      17.588799999999999     -0.152401000000000      3.835890000000000
H      18.381399999999999     -1.349080000000000      4.369970000000000
H      15.495799999999999      4.646160000000000      9.355650000000001
H      14.417000000000000      4.565550000000000      8.317320000000000
H       9.793609999999999     -1.380610000000000     11.925000000000001
H      10.391800000000000     -2.699960000000000     11.338400000000000
H      11.203099999999999     19.109700000000000     17.256000000000000
H       9.822480000000001     19.656300000000002     17.633400000000002
H       6.471350000000000      2.485800000000000      0.299502000000000
H       7.595920000000000      1.846150000000000      0.599133000000000
H       9.481050000000000      5.869330000000000      3.470480000000000
H      11.175300000000000      6.134080000000000      3.889090000000000
H      18.149699999999999     11.027300000000000     -3.842810000000000
H      19.559999999999999     10.083900000000000     -4.155870000000000
H      10.176600000000001     17.754400000000000      8.584080000000000
H      -5.271340000000000     18.790700000000001      7.532450000000000
H      14.367100000000001     -7.853330000000000     10.068899999999999
H      14.285500000000001     -9.151240000000000      9.011329999999999
H      12.447900000000001     18.855100000000000      8.104039999999999
H      13.450100000000001     19.020399999999999      6.733080000000000
H       1.735190000000000     12.630800000000001      0.133700000000000
H       1.954130000000000     11.997199999999999     -1.350950000000000
H       8.876370000000000      5.145730000000000      9.417420000000000
H      10.086399999999999      4.277460000000000      9.182219999999999
H      14.053400000000000     13.589700000000001     10.125800000000000
H      -1.878710000000000     12.395099999999999      8.976860000000000
H       4.703390000000000      7.657420000000000      6.016270000000000
H       4.398190000000000      7.593660000000000      4.464450000000000
H       0.705863000000000      4.977280000000000      7.324330000000000
H       0.679725000000000      5.342000000000000      5.873800000000000
H      33.442999999999998     14.862700000000000     -4.568090000000000
H      32.759200000000000     14.987700000000000     -3.123210000000000
H      10.586800000000000      9.243890000000000     14.130200000000000
H       9.803960000000000     10.627400000000000     14.413399999999999
H       4.423850000000000      9.705590000000001      7.430150000000000
H       5.247500000000000      8.545170000000001      7.944750000000000
H     -10.599000000000000     19.703700000000001      7.290140000000000
H      -9.871720000000000     18.461500000000001      7.567670000000000
H       6.063000000000000      5.278510000000000      0.476662000000000
H       5.988480000000000      4.448360000000000     -0.813342000000000
H       4.163880000000000      5.640580000000000     13.987299999999999
H       3.041310000000000      6.651640000000000     -1.417430000000000
H      10.105600000000001      4.004400000000000      4.872100000000000
H      10.445000000000000      2.440770000000000      5.238480000000000
H       6.983080000000000     15.492100000000001      7.188140000000000
H       6.423920000000000     16.502700000000001      6.172030000000000
H       3.036210000000000     18.054500000000001     -2.304320000000000
H       2.651720000000000      3.268560000000000     -1.021140000000000
H       4.362540000000000     19.643699999999999     17.252300000000002
H       3.200130000000000      4.449400000000000     17.992000000000001
H       5.925000000000000     15.750800000000000     -0.517767000000000
H       5.690980000000000     14.847300000000001     -1.832190000000000
H      11.273700000000000      9.500050000000000     16.543199999999999
H      11.938200000000000      8.283300000000001     17.177399999999999
H      -1.485010000000000      9.877990000000000      6.952320000000000
H      -2.099840000000000      8.560079999999999      8.065740000000000
H      15.859299999999999      0.961709000000000     -0.836617000000000
H      16.375200000000000     17.955600000000000     15.076200000000000
H      13.152799999999999     12.289700000000000      4.817540000000000
H      -3.520060000000000     12.782200000000000      3.844540000000000
H      12.739000000000001     10.012400000000000     13.647000000000000
H      14.061600000000000     11.128299999999999     14.408899999999999
H      22.611100000000000     -2.791800000000000      6.599720000000000
H      22.754400000000000     -4.124220000000000      7.170970000000000
H      14.507600000000000     16.328700000000001      9.021440000000000
H      13.624599999999999     17.331399999999999      8.260260000000001
H       4.549300000000000     -2.652860000000000     10.165400000000000
H       4.080730000000000     -1.475960000000000      9.115830000000001
H       9.380420000000001     13.775200000000000      3.909680000000000
H       7.813820000000000     14.383400000000000      3.816340000000000
H       4.558870000000000      0.614356000000000     16.592700000000001
H       3.865970000000000      1.542490000000000     15.496000000000000
H      11.992100000000001     12.303400000000000      9.999960000000000
H      10.604799999999999     11.468900000000000      9.866840000000000
H      -0.224247000000000     14.566200000000000     19.646699999999999
H      -1.865920000000000     14.427000000000000     19.863000000000000
H      11.242100000000001     -1.075530000000000      7.240090000000000
H      12.725800000000000     -0.452607000000000      7.275140000000000
H       7.520680000000000     -4.242180000000000      2.991390000000000
H       7.225250000000000     11.902500000000000      1.634630000000000
H       4.560850000000000      2.139030000000000      4.743550000000000
H       3.588160000000000      3.082870000000000      5.468430000000000
H       6.896540000000000      7.541340000000000     15.665900000000001
H       7.688600000000000      6.592950000000000     14.991700000000000
H      13.135300000000001     10.413800000000000      1.959030000000000
H      13.429399999999999     11.631000000000000      2.817680000000000
H      -8.262879999999999      0.088804300000000     11.640100000000000
H      -7.145190000000000      0.860071000000000     12.425800000000001
H      14.792000000000000      0.886554000000000      6.683130000000000
H      14.853800000000000      0.706103000000000      5.168310000000000
H      -1.319080000000000      5.052950000000000     14.024200000000000
H      -1.059220000000000      6.591440000000000     14.346500000000001
H       7.097930000000000      9.908989999999999      1.330310000000000
H       6.029300000000000      9.866980000000000      0.403340000000000
H      13.004000000000000     -0.689444000000000     -1.929060000000000
H      11.838200000000001     -1.255290000000000     12.918400000000000
H       4.262810000000000      5.476000000000000      5.733380000000000
H       2.919530000000000      4.786900000000000      6.518700000000000
H       7.987730000000000      8.119470000000000     18.852499999999999
H       8.490110000000000      8.233919999999999     20.288200000000000
H       4.892930000000000     11.899400000000000      0.353429000000000
H       4.045340000000000     10.664800000000000     -0.461126000000000
H      18.267099999999999      1.133880000000000      2.096780000000000
H       2.178940000000000      1.884410000000000      3.494820000000000
H      -5.632670000000000     11.840199999999999      2.899450000000000
H      -5.316820000000000     13.390000000000001      2.481680000000000
H      -2.425420000000000      6.294830000000000      2.359750000000000
H      -2.585400000000000      7.117630000000000      3.473670000000000
H      -9.489549999999999      4.291510000000000     12.303900000000001
H      -8.238610000000000     20.689800000000002     12.906800000000000
H      12.178200000000000     16.539800000000000     11.967100000000000
H      11.548100000000000     18.028400000000001     12.034400000000000
H       7.238980000000000     10.599100000000000     13.221100000000000
H       6.013270000000000     10.502400000000000     13.907800000000000
H       0.835494000000000      8.977410000000001      7.355070000000000
H       0.443044000000000     10.430000000000000      7.967900000000000
H       8.500909999999999     14.357799999999999      6.134110000000000
H       8.716040000000000     14.227000000000000      7.615970000000000
H       8.596410000000001     13.435600000000001     15.684300000000000
H       7.273300000000000     14.022000000000000     15.127000000000001
H       1.453460000000000     14.408200000000001     14.303500000000000
H       2.257690000000000     15.728899999999999     14.750400000000001
H      -0.946326000000000      6.497390000000000      4.591810000000000
H      -1.214260000000000      4.930620000000000      4.804850000000000
H      11.218299999999999      7.074020000000000     -2.037310000000000
H      10.835000000000001      7.756330000000000     -3.672420000000000
H       4.874960000000000     -0.146260000000000      7.177660000000000
H       3.262240000000000     -0.104789000000000      7.270060000000000
H       8.383300000000000      6.088230000000000      7.347410000000000
H       7.228680000000000      5.138400000000000      7.777060000000000
H      10.021300000000000     -0.574825000000000      8.929800000000000
H      10.354699999999999     -1.841040000000000      9.171659999999999
H       8.976970000000000      6.874670000000000     -2.552950000000000
H       7.459350000000000      6.941780000000000     12.619000000000000
H      16.583400000000001      5.300450000000000     -0.713965000000000
H      16.993800000000000      4.852560000000000      0.580967000000000
H       9.330819999999999     -3.425070000000000     12.786899999999999
H       8.414720000000001     -3.193930000000000     14.127700000000001
H       1.461070000000000     -2.783210000000000     11.991000000000000
H       0.584413000000000     -3.944420000000000     11.932100000000000
H      10.633599999999999     -5.818890000000000      5.736600000000000
H      11.527100000000001      9.636730000000000      6.988640000000000
H       4.128580000000000      9.282180000000000      3.079930000000000
H       5.011850000000000      8.018190000000001      2.304510000000000
H       9.659630000000000      8.081210000000000     21.726500000000001
H       9.661000000000000      6.512870000000000     20.972999999999999
H       5.507760000000000      7.429670000000000     12.517500000000000
H       6.238570000000000      9.089010000000000     12.446000000000000
H      18.105300000000000     17.066800000000001      6.481680000000000
H      16.721000000000000      1.512150000000000      6.416560000000000
H       1.614990000000000     23.202300000000001      0.310993000000000
H       1.091400000000000     22.984300000000001     -1.166800000000000
H       4.534810000000000      4.983520000000000     10.843000000000000
H       5.713980000000000      4.426330000000000      9.888920000000001
H       6.535220000000000      1.684540000000000      4.037440000000000
H       6.329300000000000      1.753320000000000      2.448340000000000
H      -0.831934000000000     11.490900000000000      0.548681000000000
H      -0.194726000000000     12.299400000000000     -0.229304000000000
H      16.811900000000001     -4.967150000000000      5.790380000000000
H      16.680499999999999     -3.489000000000000      5.147310000000000
H       8.483790000000001     10.425800000000001     -6.188730000000000
H       7.033730000000000      9.614229999999999     -6.370730000000000
H      18.498100000000001     12.044600000000001     17.779199999999999
H      17.861999999999998     13.438000000000001     18.097300000000001
H       0.861687000000000      8.284010000000000     11.060000000000000
H      -0.304235000000000      9.251730000000000     11.106500000000000
H       9.558120000000001      2.710210000000000     -2.538320000000000
H       7.995280000000000      2.642510000000000     -2.135500000000000
H      20.604299999999999     -1.857720000000000     20.004799999999999
H      19.637100000000000     -1.301440000000000     21.390599999999999
H      13.613200000000001     18.973099999999999     -3.031700000000000
H      14.617300000000000     18.394900000000000     -2.079330000000000
H      -2.565370000000000      3.189620000000000     20.024600000000000
H      -1.189680000000000      3.011610000000000     20.861200000000000
H       2.959660000000000     17.298200000000001     10.968999999999999
H       4.312890000000000     18.345400000000001     11.036199999999999
H      -5.757410000000000      2.251090000000000      0.977526000000000
H      -6.316810000000000      1.694810000000000     -0.514915000000000
H       5.328180000000000     14.092100000000000      0.089242300000000
H       4.080550000000000     13.471800000000000      1.195020000000000
H      15.813599999999999     19.134000000000000     11.629099999999999
H      16.925300000000000     20.187999999999999     11.133599999999999
H       5.861140000000000     14.118499999999999      2.581250000000000
H       5.935770000000000     15.611000000000001      3.320970000000000
H       4.174540000000000     11.926100000000000      6.543200000000000
H       5.078470000000000     11.489500000000000     22.792600000000000
H       2.826850000000000      7.952750000000000     -7.943560000000000
H       1.689180000000000      6.669590000000000     -8.191150000000000
H      11.825100000000001      7.270510000000000     25.098099999999999
H      10.561199999999999      6.457690000000000     25.444600000000001
H       6.918070000000000     10.042500000000000      4.487830000000000
H       6.482640000000000     11.288100000000000      5.222150000000000
H       6.075380000000000     11.283700000000000     10.031400000000000
H       5.743430000000000     11.491800000000000     11.317900000000000
H       6.932940000000000      3.467530000000000      4.791710000000000
H       8.213229999999999      2.764020000000000      5.494420000000000
H      -8.168089999999999      7.415790000000000      8.899340000000000
H      -9.011880000000000      7.953360000000000     10.073600000000001
H       0.711106000000000     10.513000000000000      3.988880000000000
H      -0.424870000000000      9.931940000000001      2.812830000000000
H       9.629550000000000     -5.900770000000000      3.654470000000000
H      11.016400000000001     -5.995190000000000      3.227960000000000
H      13.525399999999999      8.334009999999999      5.394080000000000
H      14.731400000000001      8.605240000000000      4.380380000000000
H       1.614230000000000      6.098510000000000     17.989000000000001
H       1.170710000000000      4.967180000000000     18.910799999999998
H      -1.181610000000000      8.794180000000001     13.827199999999999
H      -0.483874000000000      8.001230000000000     12.814299999999999
H      14.454599999999999     20.084099999999999     18.284700000000001
H      14.557300000000000     20.501999999999999     16.911100000000001
H      10.027900000000001     -0.368491000000000      0.935171000000000
H      11.206600000000000     -1.300540000000000      0.495066000000000
H      18.306300000000000     22.191400000000002     10.959300000000001
H      18.438400000000001     21.689000000000000     12.367100000000001
H       9.381280000000000      0.574289000000000     10.709300000000001
H      10.728999999999999      1.404760000000000     10.541700000000001
H      17.850400000000000      7.995960000000000     -6.240250000000000
H      18.316199999999998      8.810190000000000     -4.864390000000000
H       2.637470000000000      7.901390000000000      2.181080000000000
H       1.403010000000000      8.563090000000001      2.565710000000000
H      10.157700000000000      0.069510500000000      4.444120000000000
H      11.516000000000000      0.331980000000000      5.218090000000000
H       5.203260000000000      4.436280000000000      3.463280000000000
H       5.779400000000000      5.424960000000000      4.824500000000000
H      17.392099999999999      1.529560000000000      8.861560000000001
H      17.225500000000000      2.268810000000000     10.213900000000001
H      10.438700000000001      4.313520000000000     11.130000000000001
H      10.572200000000000      4.956230000000000     12.744700000000000
H      -2.940670000000000     17.427700000000002    -13.376799999999999
H      -3.851850000000000     17.291899999999998    -12.260999999999999
