384
# CELL(abcABC): 15.469530 15.469530 15.469530 90.0 90.0 90.0 Traj: positions{angstrom} cell{angstrom} Step: 20000 Bead: 0
O       1.032050000000000     -4.671200000000000     14.530200000000001
O       6.501300000000000      8.822740000000000     15.192200000000000
O      10.039300000000001     10.737100000000000     12.624000000000001
O       7.220940000000000     -3.013950000000000      9.275219999999999
O      15.487800000000000     19.517399999999999     20.293500000000002
O       5.008390000000000     -6.240970000000000      5.709730000000000
O      18.302099999999999     -7.465390000000000     -0.901472000000000
O      -2.306560000000000     16.189000000000000     17.808599999999998
O      -1.131770000000000     -5.524460000000000      3.224690000000000
O       2.976210000000000     14.435499999999999     -2.220750000000000
O      18.707100000000001     -7.129840000000000      8.017049999999999
O       1.967050000000000     16.786100000000001      6.925320000000000
O      10.882099999999999      6.529110000000000     -4.299170000000000
O       9.398260000000001      3.180010000000000      8.188710000000000
O      11.221399999999999      3.788480000000000     10.158099999999999
O      16.978700000000000     -5.483520000000000     19.173900000000000
O       1.738250000000000     16.027500000000000     19.850200000000001
O       2.736360000000000     -1.384140000000000      2.155550000000000
O      19.477300000000000      0.307628000000000      8.180619999999999
O      17.697800000000001      7.353510000000000    -11.254200000000001
O     -11.023500000000000     18.595900000000000      4.579610000000000
O       8.163040000000001     -9.020099999999999      5.219640000000000
O      13.727900000000000     13.305099999999999     11.539400000000001
O       6.663230000000000     12.752500000000000     -1.074720000000000
O       7.508070000000000      1.749740000000000      9.532500000000001
O       0.865872000000000      9.984980000000000      7.778800000000000
O       4.614180000000000      5.946640000000000      4.172420000000000
O       2.285680000000000      5.748000000000000      7.911590000000000
O      27.169300000000000     13.064700000000000      3.664510000000000
O      10.359700000000000     17.430900000000001     14.966200000000001
O       4.803790000000000      9.142400000000000     10.197900000000001
O     -15.802000000000000     22.265100000000000      4.826640000000000
O       1.120470000000000      4.402400000000000     -0.541579000000000
O       2.949850000000000     11.728500000000000     -2.774270000000000
O       5.607310000000000     -1.327170000000000      1.601320000000000
O       4.829060000000000     17.880600000000001      9.447660000000001
O      -1.747290000000000     21.697900000000001     -2.057140000000000
O       4.373240000000000      8.894880000000001     17.055000000000000
O       9.179880000000001     15.321300000000001      2.831440000000000
O      14.233800000000000     11.723900000000000     13.715100000000000
O       1.144620000000000     10.924400000000000     10.339700000000001
O      13.949199999999999     19.233100000000000     -0.964936000000000
O      -5.100180000000000     20.261500000000002      4.399110000000000
O      13.947699999999999      9.106769999999999     16.183199999999999
O      21.805800000000001     -6.114470000000000      3.361520000000000
O      10.703600000000000     16.103300000000001      9.167710000000000
O      -0.078126800000000     -2.113920000000000      9.330159999999999
O       6.956760000000000     12.144100000000000      3.113160000000000
O       1.996800000000000      2.616090000000000     16.496099999999998
O       7.699420000000000      8.974040000000000      6.491330000000000
O       1.566000000000000     11.594600000000000     21.305499999999999
O      13.636400000000000      3.056350000000000      6.651230000000000
O      11.756600000000001     14.513000000000000      7.214010000000000
O      -3.904580000000000      0.513045000000000      4.595690000000000
O       5.549960000000000     10.791900000000000     13.274400000000000
O      14.276999999999999     12.513999999999999      3.022100000000000
O      -5.800690000000000      0.023096800000000     12.647300000000000
O      14.994199999999999      2.351170000000000     10.898500000000000
O      -2.708500000000000      8.303220000000000     10.337500000000000
O       7.412810000000000     14.829700000000001     -4.520370000000000
O      10.282100000000000     -1.928790000000000     16.297100000000000
O       6.939710000000000      6.107640000000000     -0.496936000000000
O       7.834820000000000      7.260810000000000     18.205200000000001
O       7.260980000000000      9.612909999999999     -4.543620000000000
O      14.803000000000001      5.184960000000000     -4.222010000000000
O      -4.180240000000000     10.504500000000000      1.109780000000000
O      -3.379800000000000      6.557660000000000      3.600760000000000
O     -13.811500000000001      0.167286000000000     15.254099999999999
O       7.533960000000000     18.478999999999999     11.933700000000000
O       2.397830000000000      4.995310000000000     12.590800000000000
O      14.876799999999999      1.413620000000000      8.586000000000000
O       8.704780000000000     16.034700000000001      5.681670000000000
O       8.285729999999999      7.150410000000000     10.413700000000000
O       5.692400000000000     14.843800000000000     13.018400000000000
O      -1.990660000000000      5.015030000000000      8.937910000000000
O       9.347720000000001     13.069200000000000     -1.786400000000000
O       2.665740000000000     -1.495460000000000      9.846290000000000
O       7.376240000000000      5.024550000000000      7.381730000000000
O      17.505299999999998      0.611671000000000     11.412200000000000
O       6.106160000000000      5.397620000000000     -4.622560000000000
O      17.107600000000001      6.381520000000000     -5.091380000000000
O      15.827199999999999     -1.684260000000000     20.125100000000000
O       9.708690000000001     -4.672930000000000      9.891249999999999
O      15.684300000000000      6.345030000000000      1.238260000000000
O       8.234150000000000     11.478600000000000      5.465790000000000
O       9.589150000000000      5.856450000000000     15.018300000000000
O       2.367550000000000      3.707410000000000      6.256970000000000
O      19.878699999999998     11.814200000000000      8.978680000000001
O      -0.786121000000000     30.294699999999999     -1.039690000000000
O       5.693630000000000      2.129810000000000     13.350000000000000
O      -1.784070000000000      1.313390000000000     -2.557570000000000
O       2.715630000000000     10.932900000000000      1.426220000000000
O      15.236700000000001     -8.173500000000001      7.286500000000000
O      10.770300000000001     10.677899999999999    -10.470200000000000
O      23.414500000000000     11.232200000000001     16.319800000000001
O      -8.284090000000001      2.908270000000000      5.279750000000000
O      10.074400000000001      4.302770000000000    -13.766999999999999
O      20.405700000000000    -10.738500000000000     24.004000000000001
O      12.519100000000000     18.531300000000002      1.357110000000000
O       0.209984000000000      8.054069999999999     14.147700000000000
O       6.489860000000000     15.276800000000000      4.062070000000000
O      -4.345970000000000      2.931840000000000      6.210210000000000
O       5.618620000000000     20.153099999999998      1.268880000000000
O      15.505699999999999     23.745400000000000     11.343100000000000
O       3.973410000000000     16.579899999999999      2.693640000000000
O       9.895989999999999      3.983570000000000     28.479700000000001
O       5.143130000000000     -1.648020000000000     -9.380520000000001
O      20.325199999999999      6.539030000000000     28.581499999999998
O      12.709400000000000     11.031900000000000     10.561600000000000
O      11.860500000000000     11.773400000000001      7.236050000000000
O       3.329840000000000      2.723630000000000     11.670500000000001
O      -7.940820000000000      3.845360000000000     18.104600000000001
O       0.117575000000000     17.449200000000001      2.935660000000000
O      11.485200000000001     -8.007360000000000     -1.770120000000000
O      14.230800000000000     13.512000000000000      6.725100000000000
O      -3.222470000000000     -6.548890000000000     23.017700000000001
O      -3.437260000000000     15.327199999999999     11.497000000000000
O      10.584000000000000     23.256599999999999     17.257700000000000
O      12.891600000000000     -1.521760000000000      0.950064000000000
O      23.379700000000000     17.050599999999999     16.501999999999999
O      12.562200000000001      8.655130000000000      4.994780000000000
O      20.867100000000001      2.213940000000000      0.736864000000000
O       4.047770000000000     11.655700000000000      6.498150000000000
O       7.682860000000000     -1.645060000000000      6.644960000000000
O       3.320990000000000      6.361500000000000      1.493960000000000
O       9.659330000000001      8.652710000000001      8.272460000000001
O      12.171700000000000     10.127599999999999     14.200500000000000
O      -1.446290000000000     20.494499999999999    -12.709300000000001
H       0.963163000000000     -5.553420000000000     14.313499999999999
H       0.190848000000000     -4.465930000000000     13.983200000000000
H       6.171110000000000      9.277210000000000     14.542199999999999
H      -9.618950000000000      8.662220000000000     15.887900000000000
H      10.012700000000001     10.826400000000000     11.632300000000001
H      10.864900000000000     10.630699999999999     12.982500000000000
H       7.299260000000000     -1.983080000000000      9.977630000000000
H       6.264070000000000     -3.262090000000000      9.372019999999999
H      14.908700000000000     19.126400000000000     21.002700000000001
H      15.071500000000000     20.414899999999999     20.183000000000000
H       5.533530000000000     -6.180140000000000      4.921540000000000
H       4.629020000000000     -5.241440000000000      5.705110000000000
H      18.994100000000000     -7.792140000000000     -1.429280000000000
H      18.320799999999998     -8.031400000000000     -0.044131500000000
H      -1.370410000000000     16.334800000000001     18.038699999999999
H      -2.780380000000000     16.067000000000000     18.646400000000000
H      -1.150690000000000     -5.870080000000000      2.270510000000000
H      -1.873160000000000     -5.745680000000000      3.911190000000000
H       2.605930000000000     15.005699999999999     -3.139670000000000
H       3.984150000000000     14.757600000000000     -2.201360000000000
H      19.406600000000001     -6.707380000000000      8.754730000000000
H      19.116299999999999     -6.823990000000000      7.086520000000000
H       1.174550000000000     16.593000000000000      7.689660000000000
H       2.287110000000000     17.636600000000001      6.901800000000000
H       9.795220000000000      6.751140000000000     -4.537220000000000
H      10.924400000000000      5.775220000000000     -4.827210000000000
H       8.742550000000000      3.816010000000000      8.125970000000001
H       8.795540000000001      2.660490000000000      8.768520000000001
H      12.281200000000000      4.158070000000000      9.878360000000001
H      10.816400000000000      3.640560000000000      9.433770000000001
H      15.932499999999999     -5.698710000000000     19.211300000000001
H      17.045400000000001     -4.911660000000000     19.957999999999998
H       1.306330000000000     15.095800000000001     19.983499999999999
H       1.843750000000000     16.245600000000000     20.741599999999998
H       2.613040000000000     -2.291280000000000      2.085110000000000
H       2.380530000000000     -0.907160000000000      1.264870000000000
H      18.751000000000001      1.006040000000000      7.612660000000000
H      18.996099999999998     -0.537484000000000      8.780099999999999
H      16.664999999999999      7.304140000000000    -10.936500000000001
H      17.548600000000000      8.429200000000000    -11.444200000000000
H       3.685740000000000     18.537700000000001      5.171380000000000
H     -10.944000000000001     19.447800000000001      4.101600000000000
H       7.965350000000000     -8.858370000000001      4.190460000000000
H       8.200830000000000     -8.279680000000001      5.586790000000000
H      13.124700000000001     13.977100000000000     11.585500000000000
H      13.128700000000000     12.492200000000000     10.979400000000000
H       6.285540000000000     12.235200000000001     -1.794230000000000
H       7.490810000000000     13.052300000000001     -1.292610000000000
H       6.559220000000000      1.757990000000000      9.273149999999999
H       7.585530000000000      1.905210000000000     10.640100000000000
H      16.414300000000001     10.403200000000000      8.668630000000000
H       1.810400000000000      9.621630000000000      7.844820000000000
H       3.778010000000000      6.475060000000000      4.289230000000000
H       5.321980000000000      6.377340000000000      3.679450000000000
H       2.744280000000000      6.623100000000000      7.699220000000000
H       2.176200000000000      5.848650000000000      8.918680000000000
H      28.035399999999999     13.189299999999999      3.561140000000000
H      26.807500000000001     12.836300000000000      2.839610000000000
H      10.378900000000000     18.181500000000000     14.401300000000001
H      11.201499999999999     17.720300000000002     15.331500000000000
H       4.466170000000000      8.895860000000001     11.041399999999999
H       5.774930000000000      9.235609999999999     10.215800000000000
H     -16.313600000000001     22.774999999999999      4.234950000000000
H     -15.858300000000000     22.596499999999999      5.830330000000000
H       0.260969000000000      4.128370000000000     -0.688371000000000
H       1.629870000000000      3.865770000000000      0.022226400000000
H       3.089850000000000     12.820700000000000     12.752300000000000
H       2.281180000000000     11.468800000000000     -2.014190000000000
H       4.617540000000000     -1.326150000000000      1.739850000000000
H       5.614470000000000     -1.284380000000000      0.517008000000000
H       4.652050000000000     16.920500000000001      8.988280000000000
H       4.551620000000000     18.013000000000002     10.363700000000000
H      -1.292420000000000     21.549099999999999     -2.957950000000000
H      -0.931431000000000      6.839070000000000     -1.615550000000000
H       3.675720000000000     25.243800000000000     16.803799999999999
H       3.951010000000000      8.070240000000000     17.228700000000000
H       8.232970000000000     15.303100000000001      3.167110000000000
H       9.835950000000000     15.430500000000000      3.735870000000000
H      13.380100000000001     11.130300000000000     13.706300000000001
H      14.079400000000000     12.245500000000000     12.977200000000000
H       0.492093000000000     11.840999999999999     10.086100000000000
H       1.501360000000000     11.590999999999999     10.796700000000000
H      13.370400000000000      3.921410000000000     -0.157567000000000
H      14.015300000000000     20.105300000000000     14.074700000000000
H      10.395799999999999     20.183900000000001      3.445510000000000
H      -5.734570000000000     20.688099999999999      4.652640000000000
H      13.628600000000000      9.723250000000000     15.437900000000001
H      14.558500000000000      8.512969999999999     15.584899999999999
H      21.019900000000000     -6.083970000000000      2.855340000000000
H      21.928799999999999     -5.196490000000000      3.481760000000000
H      11.182399999999999     15.886600000000000      9.899500000000000
H      10.472700000000000     17.033100000000001      9.049250000000001
H      -0.678901000000000     -2.046600000000000     10.098000000000001
H      -0.222237000000000     -2.457290000000000      8.425500000000000
H       7.484990000000000     11.904800000000000      2.356520000000000
H       6.254150000000000     12.844099999999999      2.789470000000000
H       1.184380000000000      2.260960000000000     17.094799999999999
H       2.820490000000000      2.617960000000000     17.114000000000001
H       6.797000000000000      9.224860000000000      6.601310000000000
H       7.886690000000000      9.848010000000000      5.774200000000000
H       2.412240000000000     11.673999999999999     21.609900000000000
H       1.203620000000000     10.904299999999999     22.045800000000000
H      13.788800000000000      2.108980000000000      7.057430000000000
H      12.523400000000001      3.050000000000000      6.546570000000000
H      12.796900000000001     -0.953199000000000      7.482980000000000
H      11.363700000000000     15.218900000000000      7.740320000000000
H      -4.579860000000000      1.113620000000000      5.060330000000000
H      -3.603150000000000     -0.227112000000000      5.250300000000000
H       6.221430000000000     10.331000000000000     12.427700000000000
H       4.620040000000000     11.191800000000001     12.823900000000000
H      14.382199999999999     12.524300000000000      2.005200000000000
H      14.363700000000000     11.489599999999999      3.051750000000000
H      -5.610020000000000      0.729592000000000     13.450500000000000
H      -5.710120000000000     -0.900864000000000     12.932800000000000
H      15.112100000000000      3.274590000000000     11.081400000000000
H      14.207100000000001      2.206780000000000     11.566200000000000
H      -3.563030000000000      7.762800000000000     10.383100000000001
H      -2.960770000000000      8.368830000000001      9.252430000000000
H       7.192530000000000     15.610099999999999     -5.219060000000000
H       8.208890000000000     14.978500000000000     -3.994900000000000
H      11.393100000000000     -1.915710000000000      0.940057000000000
H       9.724299999999999     -1.341870000000000     16.746500000000001
H       6.359720000000000      5.710840000000000      0.159443000000000
H       6.949780000000000      6.962000000000000     -0.204793000000000
H       8.586180000000001      7.710590000000000     17.898499999999999
H       7.135540000000000      7.903020000000000     18.351700000000001
H       8.044919999999999     10.195900000000000     -5.096630000000000
H       7.603310000000000      8.679010000000000     -4.616130000000000
H      15.842499999999999      5.338290000000000     -4.244000000000000
H      -1.004680000000000      5.077690000000000     -5.194720000000000
H      -4.812870000000000     11.272900000000000      0.983195000000000
H      -4.758380000000000      9.622019999999999      1.086620000000000
H      -2.631880000000000      6.023670000000000      3.397450000000000
H      -4.013870000000000      5.858430000000000      4.169270000000000
H     -13.283500000000000      0.008658800000000     14.438700000000001
H     -13.310700000000001     16.345199999999998     15.611400000000000
H       6.614300000000000     18.238600000000002     12.574199999999999
H       8.387919999999999     18.704400000000000     12.520600000000000
H       1.936360000000000      4.658500000000000     13.428200000000000
H       3.150360000000000      5.510020000000000     12.835500000000000
H      -0.646893000000000      0.550144000000000      8.810850000000000
H      -0.410575000000000      2.058660000000000      9.439120000000001
H       8.180949999999999     16.727100000000000      5.405920000000000
H       9.392890000000000     16.236799999999999      6.149590000000000
H       7.458430000000000      6.486810000000000     10.446000000000000
H       8.310250000000000      7.437370000000000      9.335610000000001
H       5.973980000000000     14.048000000000000     13.471299999999999
H       6.176860000000000     14.844900000000001     12.169200000000000
H      -1.752590000000000      4.368570000000000      8.298299999999999
H      -2.023740000000000      5.814550000000000      8.497780000000001
H       9.379000000000000     12.246800000000000     -2.131900000000000
H       9.671659999999999     12.821199999999999     -0.888894000000000
H       2.694240000000000     -0.722249000000000     10.384600000000001
H       1.820630000000000     -1.508200000000000      9.683500000000000
H       6.395800000000000      5.166080000000000      7.342770000000000
H       7.732400000000000      5.690060000000000      6.778370000000000
H      17.990900000000000      1.519920000000000     11.328400000000000
H      16.567699999999999      0.947470000000000     11.152699999999999
H       6.572630000000000      4.645200000000000     -4.503380000000000
H       5.817560000000000      5.211290000000000      9.899600000000000
H      17.451499999999999      6.187150000000000     -4.135980000000000
H      16.259599999999999      6.986210000000000     -4.896230000000000
H      16.360199999999999     -2.430530000000000     20.524899999999999
H      15.283099999999999     -1.932320000000000     19.306500000000000
H       9.752359999999999     -5.531240000000000      9.251180000000000
H       9.267899999999999     -4.053510000000000      9.394110000000000
H      16.220700000000001     -9.743040000000001      0.509468000000000
H      16.428599999999999      6.458580000000000      1.914720000000000
H       7.770920000000000     11.812300000000000      4.573420000000000
H       8.068910000000001     12.231400000000001      5.994180000000000
H      10.138299999999999      6.466350000000000     14.497800000000000
H       8.632199999999999      6.075980000000000     14.812200000000001
H       1.615970000000000      3.964290000000000      5.758730000000000
H       2.215960000000000      4.484440000000000      6.922420000000000
H      19.482500000000002     12.623300000000000      9.306889999999999
H      19.816700000000001     -4.467920000000000      9.612090000000000
H      -0.418210000000000     29.574999999999999     -1.470130000000000
H       0.070428900000000     30.715699999999998     -0.809910000000000
H       5.829250000000000      1.285020000000000     13.185900000000000
H       5.471050000000000      2.443650000000000     14.214300000000000
H      -2.454700000000000      1.673380000000000     -1.952220000000000
H      -1.349590000000000      0.458441000000000     -2.051830000000000
H       2.263500000000000     10.419400000000000      2.397520000000000
H       2.030400000000000     10.745300000000000      0.707384000000000
H      16.073899999999998     -8.747500000000000      7.475810000000000
H      15.441200000000000     -7.086930000000000      7.366590000000000
H      10.054200000000000     11.253000000000000    -10.472400000000000
H      11.198100000000000     11.381300000000000    -10.980700000000001
H      23.103500000000000     10.294600000000001     16.262499999999999
H      22.865900000000000     11.776500000000000     15.529999999999999
H      -8.351730000000000      3.478500000000000      6.106830000000000
H      -9.473580000000000      2.889640000000000      5.032310000000000
H      10.107200000000001      5.141360000000000    -14.390100000000000
H       9.126870000000000      4.189580000000000    -13.423299999999999
H      19.606900000000000    -10.286899999999999     23.601500000000001
H      20.286899999999999    -11.769100000000000     24.139800000000001
H      12.696300000000001     17.665900000000001      1.918940000000000
H      11.769399999999999     19.100899999999999      1.584520000000000
H       1.120430000000000      7.947070000000000     14.023300000000001
H       0.263147000000000      8.342070000000000     13.287800000000001
H       5.886790000000000     15.449000000000000      3.161080000000000
H       6.057010000000000     14.654700000000000      4.601340000000000
H      -4.689060000000000      3.733140000000000      5.658430000000000
H      -5.004100000000000      2.988670000000000      7.023070000000000
H       5.228240000000000     19.404100000000000      1.033350000000000
H       6.368280000000000     19.962199999999999      1.748750000000000
H      14.579100000000000     23.756399999999999     10.775499999999999
H      15.855300000000000     24.498999999999999     11.044900000000000
H       3.194100000000000     16.081900000000001      3.235160000000000
H       4.079830000000000     17.096800000000002      3.387440000000000
H      10.027900000000001      4.866880000000000     13.300200000000000
H      10.194500000000000      3.826750000000000     27.391100000000002
H       6.157180000000000     -1.743060000000000     -9.155139999999999
H       4.828690000000000     -0.962240000000000     -8.785450000000001
H      20.539899999999999      6.130120000000000     27.705300000000001
H      21.014099999999999      6.171540000000000     29.240100000000002
H      12.722400000000000     10.081600000000000     10.530600000000000
H      11.846000000000000     11.154500000000001     10.449100000000000
H      11.827299999999999     11.602300000000000      6.253670000000000
H      11.645700000000000     12.821999999999999      7.200890000000000
H       3.939850000000000      2.581680000000000     12.381900000000000
H       2.914960000000000      3.473940000000000     12.088699999999999
H      -8.023040000000000      3.650070000000000     19.144200000000001
H      -8.023429999999999      2.876160000000000     17.809799999999999
H       0.659611000000000     16.933000000000000      3.675700000000000
H       0.010898000000000     18.295100000000001      3.443140000000000
H      12.291600000000001     -8.515890000000001     -1.829320000000000
H      11.336399999999999     -8.443000000000000     -2.845150000000000
H      13.548100000000000     12.744500000000000      6.756570000000000
H      14.699800000000000     13.952800000000000      6.113190000000000
H      -3.242350000000000     -6.642820000000000     21.994499999999999
H      -3.063000000000000     -5.627510000000000     22.863199999999999
H      -4.307770000000000     15.491000000000000     12.004300000000001
H      -2.726400000000000     15.820800000000000     11.861800000000001
H      10.577900000000000     22.591699999999999     16.560400000000001
H      11.217900000000000     22.774899999999999     17.977100000000000
H      13.492200000000000     -1.245390000000000      0.257526000000000
H      12.782999999999999     -0.594340000000000      1.551140000000000
H      23.941099999999999     16.434799999999999     17.151900000000001
H      24.099599999999999     17.086200000000002     15.720599999999999
H      11.622600000000000      9.107250000000001      4.704620000000000
H      12.519500000000001      7.758250000000000      4.514970000000000
H      20.291499999999999      1.676600000000000      1.325570000000000
H      21.775800000000000      1.855010000000000      0.751450000000000
H       4.298910000000000     11.701900000000000      7.561680000000000
H       4.426750000000000     12.606600000000000      6.330900000000000
H       8.128100000000000     -0.837670000000000      6.252180000000000
H       7.476770000000000     -1.785410000000000      7.708490000000000
H       2.876260000000000      6.605540000000000      2.410160000000000
H       4.281260000000000      5.960350000000000      1.810090000000000
H       9.026479999999999      9.021580000000000      7.665850000000000
H      10.554700000000000      8.576820000000000      7.874900000000000
H      12.127800000000001      9.158740000000000     14.061700000000000
H      11.780200000000001     10.245699999999999     15.070900000000000
H      -1.867500000000000     19.721499999999999    -13.207200000000000
H      -0.988241000000000     21.004400000000000    -13.440099999999999
