LAMMPS (2 Aug 2023)
Processor partition = 1
OMP_NUM_THREADS environment is not set. Defaulting to 1 thread. (src/comm.cpp:98)
  using 1 OpenMP thread(s) per MPI task
Loaded 1 plugins from /opt/deepmd-kit/lib/deepmd_lmp
clear
OMP_NUM_THREADS environment is not set. Defaulting to 1 thread. (src/comm.cpp:98)
  using 1 OpenMP thread(s) per MPI task
Loaded 1 plugins from /opt/deepmd-kit/lib/deepmd_lmp
# --------------------- VARIABLES-------------------------
variable        ibead           uloop 99 pad
variable        NSTEPS          equal 1000
variable        THERMO_FREQ     equal 1
#variable        DUMP_FREQ       equal 4000
#variable        NREPEAT         equal ${NSTEPS}/${DUMP_FREQ}
variable        TEMP            equal 300.000000
variable        TAU_T           equal 1.000000
# ---------------------- INITIALIZAITION ------------------
units           metal
boundary        p p p
atom_style      atomic
atom_modify     map yes
# --------------------- ATOM DEFINITION ------------------
read_data       /pscratch/sd/y/yifanl/Work/h2o/pimd/initial_config/conf01
Reading data file ...
  orthogonal box = (0 0 0) to (24.76926 24.76926 24.76926)
  1 by 1 by 1 MPI processor grid
  reading atoms ...
  1536 atoms
  read_data CPU = 0.005 seconds
mass            1 16.000000
mass            2 1.000000
replicate       3 3 3
Replication is creating a 3x3x3 = 27 times larger system...
  orthogonal box = (0 0 0) to (74.30778 74.30778 74.30778)
  1 by 1 by 1 MPI processor grid
  41472 atoms
  replicate CPU = 0.003 seconds
# --------------------- FORCE FIELDS ---------------------
pair_style      deepmd /pscratch/sd/y/yifanl/Work/h2o/pimd/benchmark/graph.pb
Summary of lammps deepmd module ...
  >>> Info of deepmd-kit:
  installed to:       /opt/deepmd-kit
  source:             
  source branch:      HEAD
  source commit:      5ec5eae
  source commit at:   2024-02-04 18:53:26 -0500
  support model ver.: 1.1 
  build variant:      cuda
  build with tf inc:  /opt/deepmd-kit/lib/python3.11/site-packages/tensorflow/include;/opt/deepmd-kit/include
  build with tf lib:  /opt/deepmd-kit/lib/python3.11/site-packages/tensorflow/libtensorflow_cc.so.2
  set tf intra_op_parallelism_threads: 0
  set tf inter_op_parallelism_threads: 0
  >>> Info of lammps module:
  use deepmd-kit at:  /opt/deepmd-kitpair_coeff * *
# --------------------- MD SETTINGS ----------------------
neighbor        2.0 bin
neigh_modify    every 10 delay 0 check no
timestep        0.000500
thermo          ${THERMO_FREQ}
thermo          1
thermo_style    custom step pe
#dump            1 all custom ${DUMP_FREQ} ${ibead}.xyz id type x y z
#dump_modify     1 sort id
fix 1 all pimd/langevin ensemble nvt integrator obabo temp ${TEMP} thermostat PILE_L 1234 tau ${TAU_T}
fix 1 all pimd/langevin ensemble nvt integrator obabo temp 300 thermostat PILE_L 1234 tau ${TAU_T}
fix 1 all pimd/langevin ensemble nvt integrator obabo temp 300 thermostat PILE_L 1234 tau 1
# --------------------- RUN ------------------------------
run             ${NSTEPS}
run             1000

CITE-CITE-CITE-CITE-CITE-CITE-CITE-CITE-CITE-CITE-CITE-CITE-CITE

Your simulation uses code contributions which should be cited:

- USER-DEEPMD package:

@article{Wang_ComputPhysCommun_2018_v228_p178,
  author = {Wang, Han and Zhang, Linfeng and Han, Jiequn and E, Weinan},
  doi = {10.1016/j.cpc.2018.03.016},
  url = {https://doi.org/10.1016/j.cpc.2018.03.016},
  year = 2018,
  month = {jul},
  publisher = {Elsevier {BV}},
  volume = 228,
  journal = {Comput. Phys. Commun.},
  title = {{DeePMD-kit: A deep learning package for many-body potential energy representation and molecular dynamics}},
  pages = {178--184}
}
@misc{Zeng_JChemPhys_2023_v159_p054801,
  title  = {{DeePMD-kit v2: A software package for deep potential models}},
  author =   {Jinzhe Zeng and Duo Zhang and Denghui Lu and Pinghui Mo and Zeyu Li
         and Yixiao Chen and Mari{\'a}n Rynik and Li'ang Huang and Ziyao Li and 
         Shaochen Shi and Yingze Wang and Haotian Ye and Ping Tuo and Jiabin
         Yang and Ye Ding and Yifan Li and Davide Tisi and Qiyu Zeng and Han 
         Bao and Yu Xia and Jiameng Huang and Koki Muraoka and Yibo Wang and 
         Junhan Chang and Fengbo Yuan and Sigbj{\o}rn L{\o}land Bore and Chun
         Cai and Yinnian Lin and Bo Wang and Jiayan Xu and Jia-Xin Zhu and 
         Chenxing Luo and Yuzhi Zhang and Rhys E A Goodall and Wenshuo Liang
         and Anurag Kumar Singh and Sikai Yao and Jingchao Zhang and Renata
         Wentzcovitch and Jiequn Han and Jie Liu and Weile Jia and Darrin M
         York and Weinan E and Roberto Car and Linfeng Zhang and Han Wang},
  journal =  {J. Chem. Phys.},
  volume =   159,
  issue =    5,  
  year =    2023,
  pages  =   054801,
  doi =      {10.1063/5.0155600},
}

CITE-CITE-CITE-CITE-CITE-CITE-CITE-CITE-CITE-CITE-CITE-CITE-CITE

Generated 0 of 1 mixed pair_coeff terms from geometric mixing rule

Initializing PI Langevin equation thermostat...
Bead ID    |    omega    |    tau    |    c1    |    c2
    0     0.00000000e+00 1.00000000e+00 9.99750031e-01 2.23578850e-02
    1     2.46383091e+02 2.02936004e-03 8.84094302e-01 4.67308533e-01
    2     4.90393378e+02 1.01958962e-03 7.82550604e-01 6.22586984e-01
    3     7.29680909e+02 6.85231028e-04 6.94307415e-01 7.19678548e-01
    4     9.61941214e+02 5.19782282e-04 6.18183088e-01 7.86034141e-01
    5     1.18493750e+03 4.21963184e-04 5.52960477e-01 8.33207484e-01
    6     1.39652219e+03 3.58032263e-04 4.97449570e-01 8.67492896e-01
    7     1.59465761e+03 3.13546932e-04 4.50530815e-01 8.92760878e-01
    8     1.77743560e+03 2.81304144e-04 4.11182633e-01 9.11552984e-01
    9     1.94309592e+03 2.57321317e-04 3.78496688e-01 9.25602646e-01
    10     2.09004316e+03 2.39229510e-04 3.51684231e-01 9.36118690e-01
    11     2.21686214e+03 2.25544021e-04 3.30076422e-01 9.43954213e-01
    12     2.32233153e+03 2.15300871e-04 3.13120943e-01 9.49713259e-01
    13     2.40543559e+03 2.07862560e-04 3.00376739e-01 9.53820641e-01
    14     2.46537400e+03 2.02808986e-04 2.91508242e-01 9.56568317e-01
    15     2.50156951e+03 1.99874518e-04 2.86280050e-01 9.58145987e-01
    16     2.51367353e+03 1.98912068e-04 2.84552711e-01 9.58660396e-01
    17     2.50156951e+03 1.99874518e-04 2.86280050e-01 9.58145987e-01
    18     2.46537400e+03 2.02808986e-04 2.91508242e-01 9.56568317e-01
    19     2.40543559e+03 2.07862560e-04 3.00376739e-01 9.53820641e-01
    20     2.32233153e+03 2.15300871e-04 3.13120943e-01 9.49713259e-01
    21     2.21686214e+03 2.25544021e-04 3.30076422e-01 9.43954213e-01
    22     2.09004316e+03 2.39229510e-04 3.51684231e-01 9.36118690e-01
    23     1.94309592e+03 2.57321317e-04 3.78496688e-01 9.25602646e-01
    24     1.77743560e+03 2.81304144e-04 4.11182633e-01 9.11552984e-01
    25     1.59465761e+03 3.13546932e-04 4.50530815e-01 8.92760878e-01
    26     1.39652219e+03 3.58032263e-04 4.97449570e-01 8.67492896e-01
    27     1.18493750e+03 4.21963184e-04 5.52960477e-01 8.33207484e-01
    28     9.61941214e+02 5.19782282e-04 6.18183088e-01 7.86034141e-01
    29     7.29680909e+02 6.85231028e-04 6.94307415e-01 7.19678548e-01
    30     4.90393378e+02 1.01958962e-03 7.82550604e-01 6.22586984e-01
    31     2.46383091e+02 2.02936004e-03 8.84094302e-01 4.67308533e-01
PILE_L thermostat successfully initialized!

Neighbor list info ...
  update: every = 10 steps, delay = 0 steps, check = no
  max neighbors/atom: 2000, page size: 100000
  master list distance cutoff = 8
  ghost atom cutoff = 8
  binsize = 4, bins = 19 19 19
  1 neighbor lists, perpetual/occasional/extra = 1 0 0
  (1) pair deepmd, perpetual
      attributes: full, newton on
      pair build: full/bin/atomonly
      stencil: full/bin/3d
      bin: standard
Per MPI rank memory allocation (min/avg/max) = 47.09 | 47.09 | 47.09 Mbytes
   Step         PotEng    
         0  -6460847.9    
         1  -6460109.3    
         2  -6459552      
         3  -6459113.2    
         4  -6458812.5    
         5  -6458590.4    
         6  -6458389.7    
         7  -6458216      
         8  -6458046.8    
         9  -6457954.6    
        10  -6457930.1    
        11  -6457963.6    
        12  -6458029      
        13  -6458098.5    
        14  -6458130.9    
        15  -6458046.9    
        16  -6457970.4    
        17  -6457890.5    
        18  -6457827.3    
        19  -6457860.1    
        20  -6457905.5    
        21  -6458005.8    
        22  -6458115.2    
        23  -6458187.8    
        24  -6458224.8    
        25  -6458279.1    
        26  -6458227.7    
        27  -6458168.4    
        28  -6458130.2    
        29  -6458128.1    
        30  -6458118.3    
        31  -6458141.6    
        32  -6458194.6    
        33  -6458170.7    
        34  -6458129.8    
        35  -6458090.1    
        36  -6458011.1    
        37  -6457933.5    
        38  -6457915.6    
        39  -6457873.6    
        40  -6457877.3    
        41  -6457889      
        42  -6457945.7    
        43  -6458001.7    
        44  -6457996      
        45  -6457980.1    
        46  -6457982.8    
        47  -6457976.6    
        48  -6458027.1    
        49  -6457999.7    
        50  -6458013.1    
        51  -6458026.9    
        52  -6458045.2    
        53  -6458007.3    
        54  -6457984.5    
        55  -6457996.7    
        56  -6457967.8    
        57  -6457940.1    
        58  -6457960.8    
        59  -6457995      
        60  -6458002.9    
        61  -6457993.5    
        62  -6458003.6    
        63  -6458033.8    
        64  -6458069.5    
        65  -6458064.3    
        66  -6458092.4    
        67  -6458120.2    
        68  -6458124.8    
        69  -6458099.5    
        70  -6458101.4    
        71  -6458157      
        72  -6458125      
        73  -6458084.9    
        74  -6458038.3    
        75  -6458030      
        76  -6458067.9    
        77  -6458073.9    
        78  -6458029.1    
        79  -6458037.1    
        80  -6458019.1    
        81  -6458017.4    
        82  -6458041.3    
        83  -6458035.2    
        84  -6458012      
        85  -6457999.5    
        86  -6458012.1    
        87  -6458021.2    
        88  -6458066.2    
        89  -6458095      
        90  -6458075.8    
        91  -6458056.7    
        92  -6458041.5    
        93  -6458054.2    
        94  -6458077.1    
        95  -6458042      
        96  -6458025.2    
        97  -6458014.4    
        98  -6457978.6    
        99  -6457935      
       100  -6457943.7    
       101  -6457956.5    
       102  -6457953.3    
       103  -6457946.3    
       104  -6457956.3    
       105  -6457984.3    
       106  -6457996.3    
       107  -6458019.4    
       108  -6458024.9    
       109  -6458031.5    
       110  -6458031.6    
       111  -6458044.8    
       112  -6458033.3    
       113  -6458023.4    
       114  -6458018.4    
       115  -6457988.7    
       116  -6457987.8    
       117  -6457998.1    
       118  -6458003.8    
       119  -6457983.1    
       120  -6457923.6    
       121  -6457925.9    
       122  -6457926.9    
       123  -6457931.6    
       124  -6457954.7    
       125  -6457961.4    
       126  -6457979.8    
       127  -6457981.2    
       128  -6457962.3    
       129  -6458003.2    
       130  -6458010.4    
       131  -6458012      
       132  -6458027.9    
       133  -6458029.3    
       134  -6458034.6    
       135  -6458030.3    
       136  -6457988.3    
       137  -6458003.6    
       138  -6458011.5    
       139  -6458021      
       140  -6457982.5    
       141  -6457966.7    
       142  -6457957.1    
       143  -6457943.2    
       144  -6457953.4    
       145  -6457962.7    
       146  -6457944.9    
       147  -6457963.9    
       148  -6457984.5    
       149  -6458013.2    
       150  -6458029.3    
       151  -6457996.4    
       152  -6458012.2    
       153  -6458041.2    
       154  -6458049.8    
       155  -6458039.7    
       156  -6458052.2    
       157  -6458031.2    
       158  -6458021.6    
       159  -6458020.9    
       160  -6457988.4    
       161  -6458000.6    
       162  -6458030.2    
       163  -6458007.4    
       164  -6457992.1    
       165  -6457969.1    
       166  -6457997.1    
       167  -6458018      
       168  -6458031.3    
       169  -6458027.5    
       170  -6458040.2    
       171  -6458031.3    
       172  -6458046.1    
       173  -6458029.8    
       174  -6457998.9    
       175  -6457991.2    
       176  -6457947.4    
       177  -6457949      
       178  -6457954      
       179  -6457970.3    
       180  -6457964.4    
       181  -6457954.2    
       182  -6457964.8    
       183  -6457985.4    
       184  -6457940.3    
       185  -6457942.4    
       186  -6457949.8    
       187  -6457950.1    
       188  -6457951.5    
       189  -6457964.1    
       190  -6457964.3    
       191  -6457983.2    
       192  -6457983.8    
       193  -6457991.8    
       194  -6457979.3    
       195  -6457995.8    
       196  -6457977.8    
       197  -6457976.6    
       198  -6457990.9    
       199  -6457958.4    
       200  -6457930.6    
       201  -6457944.7    
       202  -6457958.1    
       203  -6457946.2    
       204  -6457948.7    
       205  -6457948.6    
       206  -6457939.9    
       207  -6457924.7    
       208  -6457956.4    
       209  -6457979.5    
       210  -6457973.6    
       211  -6458013.1    
       212  -6457994.2    
       213  -6457980      
       214  -6457939.4    
       215  -6457918.3    
       216  -6457940.2    
       217  -6457914.9    
       218  -6457927.6    
       219  -6457909.4    
       220  -6457941.4    
       221  -6457955.9    
       222  -6457986.2    
       223  -6457950.7    
       224  -6457950.8    
       225  -6457937.8    
       226  -6457908.1    
       227  -6457906.2    
       228  -6457919.7    
       229  -6457923.1    
       230  -6457909.7    
       231  -6457923.2    
       232  -6457931.3    
       233  -6457913      
       234  -6457892.2    
       235  -6457944.6    
       236  -6457986.5    
       237  -6457929.6    
       238  -6457908.6    
       239  -6457932.7    
       240  -6457935.5    
       241  -6457915.7    
       242  -6457914      
       243  -6457951.2    
       244  -6457933      
       245  -6457970.8    
       246  -6457921.3    
       247  -6457914.6    
       248  -6457925.4    
       249  -6457933.7    
       250  -6457931      
       251  -6457887.9    
       252  -6457876      
       253  -6457915.1    
       254  -6457940.7    
       255  -6457937.4    
       256  -6457952.8    
       257  -6457942.8    
       258  -6457937.9    
       259  -6457931.3    
       260  -6457909.1    
       261  -6457938.9    
       262  -6457924.1    
       263  -6457948.5    
       264  -6457904.4    
       265  -6457936.7    
       266  -6457936.2    
       267  -6457940.3    
       268  -6457931      
       269  -6457936.9    
       270  -6457928      
       271  -6457922.6    
       272  -6457912.4    
       273  -6457909.3    
       274  -6457906.9    
       275  -6457901.3    
       276  -6457904.6    
       277  -6457893.3    
       278  -6457905.4    
       279  -6457938.4    
       280  -6457945.2    
       281  -6457966.9    
       282  -6457999.5    
       283  -6457964.1    
       284  -6457954.9    
       285  -6457937.8    
       286  -6457933.5    
       287  -6457915.5    
       288  -6457934.9    
       289  -6457940.9    
       290  -6457924.2    
       291  -6457918.1    
       292  -6457928      
       293  -6457905.9    
       294  -6457913.9    
       295  -6457891.2    
       296  -6457874.2    
       297  -6457887.1    
       298  -6457910.8    
       299  -6457892.6    
       300  -6457883.9    
       301  -6457888.2    
       302  -6457896.6    
       303  -6457933.1    
       304  -6457920.2    
       305  -6457870.2    
       306  -6457896.3    
       307  -6457944.2    
       308  -6457893.3    
       309  -6457885.9    
       310  -6457892.6    
       311  -6457904.2    
       312  -6457918.7    
       313  -6457913.9    
       314  -6457859.9    
       315  -6457873.5    
       316  -6457887.1    
       317  -6457910.5    
       318  -6457928.7    
       319  -6457906.9    
       320  -6457940.6    
       321  -6457913      
       322  -6457926.8    
       323  -6457904      
       324  -6457866.6    
       325  -6457868.2    
       326  -6457885.6    
       327  -6457901.6    
       328  -6457873.3    
       329  -6457894.8    
       330  -6457905.6    
       331  -6457890      
       332  -6457880.3    
       333  -6457891.8    
       334  -6457870      
       335  -6457868      
       336  -6457895.2    
       337  -6457942.1    
       338  -6457913.6    
       339  -6457906.5    
       340  -6457922.5    
       341  -6457923      
       342  -6457905.1    
       343  -6457872.8    
       344  -6457925.7    
       345  -6457922.2    
       346  -6457956.4    
       347  -6457947.2    
       348  -6457919.1    
       349  -6457892.9    
       350  -6457885.6    
       351  -6457894.1    
       352  -6457860.9    
       353  -6457848.9    
       354  -6457871.7    
       355  -6457877.3    
       356  -6457873.6    
       357  -6457865.2    
       358  -6457901.7    
       359  -6457923.6    
       360  -6457897.2    
       361  -6457888.8    
       362  -6457895.8    
       363  -6457877.3    
       364  -6457916.2    
       365  -6457905.2    
       366  -6457886      
       367  -6457874.5    
       368  -6457864.7    
       369  -6457890.9    
       370  -6457900.4    
       371  -6457859.5    
       372  -6457845.5    
       373  -6457844.3    
       374  -6457876.3    
       375  -6457880.6    
       376  -6457932.5    
       377  -6457912.5    
       378  -6457868.7    
       379  -6457858.7    
       380  -6457865      
       381  -6457849.6    
       382  -6457847.7    
       383  -6457838.2    
       384  -6457868.6    
       385  -6457857.6    
       386  -6457866.2    
       387  -6457837.6    
       388  -6457832.8    
       389  -6457835.1    
       390  -6457825.2    
       391  -6457870.6    
       392  -6457864.5    
       393  -6457859.5    
       394  -6457862      
       395  -6457891.8    
       396  -6457876.1    
       397  -6457853.1    
       398  -6457887.8    
       399  -6457884      
       400  -6457859.7    
       401  -6457831.3    
       402  -6457901.4    
       403  -6457880.4    
       404  -6457859.1    
       405  -6457862.1    
       406  -6457864.4    
       407  -6457880.4    
       408  -6457854.9    
       409  -6457852.9    
       410  -6457867.5    
       411  -6457877.3    
       412  -6457918.6    
       413  -6457905.6    
       414  -6457905      
       415  -6457885.5    
       416  -6457842.7    
       417  -6457843.7    
       418  -6457850.4    
       419  -6457873.4    
       420  -6457873      
       421  -6457872.7    
       422  -6457910.6    
       423  -6457896.7    
       424  -6457877      
       425  -6457844.3    
       426  -6457801.2    
       427  -6457803.4    
       428  -6457830.7    
       429  -6457842.5    
       430  -6457838      
       431  -6457829.6    
       432  -6457847.8    
       433  -6457871.6    
       434  -6457887.5    
       435  -6457854.2    
       436  -6457810.2    
       437  -6457806.6    
       438  -6457832.6    
       439  -6457834.2    
       440  -6457857.9    
       441  -6457850.1    
       442  -6457906.4    
       443  -6457847.7    
       444  -6457864.8    
       445  -6457870.2    
       446  -6457909.8    
       447  -6457900.2    
       448  -6457901.8    
       449  -6457896.2    
       450  -6457924.7    
       451  -6457949.6    
       452  -6457922.8    
       453  -6457885.2    
       454  -6457905.6    
       455  -6457869.2    
       456  -6457833      
       457  -6457843.7    
       458  -6457845.4    
       459  -6457872.6    
       460  -6457898.3    
       461  -6457899.4    
       462  -6457888.7    
       463  -6457891.3    
       464  -6457892.3    
       465  -6457912.7    
       466  -6457910      
       467  -6457889.4    
       468  -6457867.3    
       469  -6457847.8    
       470  -6457894.6    
       471  -6457888.6    
       472  -6457866      
       473  -6457874.5    
       474  -6457865.1    
       475  -6457858      
       476  -6457874.6    
       477  -6457838      
       478  -6457872.5    
       479  -6457881.8    
       480  -6457909.7    
       481  -6457919.4    
       482  -6457905.1    
       483  -6457885.3    
       484  -6457858.7    
       485  -6457869.6    
       486  -6457876.6    
       487  -6457901.8    
       488  -6457885.5    
       489  -6457876.6    
       490  -6457894.6    
       491  -6457856.9    
       492  -6457863.3    
       493  -6457847.7    
       494  -6457886.4    
       495  -6457878.8    
       496  -6457875.5    
       497  -6457916.9    
       498  -6457924.3    
       499  -6457919.9    
       500  -6457889.9    
       501  -6457876.1    
       502  -6457859      
       503  -6457868.7    
       504  -6457827.8    
       505  -6457802.3    
       506  -6457809.5    
       507  -6457846.4    
       508  -6457869      
       509  -6457890.6    
       510  -6457864.6    
       511  -6457869.3    
       512  -6457854.4    
       513  -6457851.2    
       514  -6457862.6    
       515  -6457873.8    
       516  -6457887.3    
       517  -6457917.9    
       518  -6457892.5    
       519  -6457886.6    
       520  -6457888.6    
       521  -6457869.3    
       522  -6457861.5    
       523  -6457900.2    
       524  -6457864.9    
       525  -6457884.6    
       526  -6457882.2    
       527  -6457900.6    
       528  -6457891.1    
       529  -6457853.1    
       530  -6457867.1    
       531  -6457834.3    
       532  -6457837      
       533  -6457797.8    
       534  -6457842.5    
       535  -6457830.1    
       536  -6457870.4    
       537  -6457868.6    
       538  -6457842.7    
       539  -6457868.3    
       540  -6457854      
       541  -6457867      
       542  -6457831      
       543  -6457857.1    
       544  -6457853.9    
       545  -6457815.3    
       546  -6457834      
       547  -6457826.9    
       548  -6457832.5    
       549  -6457838.4    
       550  -6457849.4    
       551  -6457864.8    
       552  -6457892.5    
       553  -6457870.7    
       554  -6457873      
       555  -6457868.1    
       556  -6457869.9    
       557  -6457859.9    
       558  -6457872.3    
       559  -6457880.7    
       560  -6457850.7    
       561  -6457855      
       562  -6457850.3    
       563  -6457843.6    
       564  -6457884      
       565  -6457843.8    
       566  -6457866      
       567  -6457891      
       568  -6457875.4    
       569  -6457844.4    
       570  -6457875.1    
       571  -6457859.2    
       572  -6457869.3    
       573  -6457881.9    
       574  -6457899.8    
       575  -6457895.9    
       576  -6457870      
       577  -6457847.6    
       578  -6457877.9    
       579  -6457869.4    
       580  -6457874.9    
       581  -6457856.7    
       582  -6457861.7    
       583  -6457837.2    
       584  -6457822.3    
       585  -6457797      
       586  -6457807.2    
       587  -6457830.1    
       588  -6457814.5    
       589  -6457814.8    
       590  -6457843.5    
       591  -6457858.8    
       592  -6457892.8    
       593  -6457883.7    
       594  -6457885.9    
       595  -6457863.2    
       596  -6457833.2    
       597  -6457801.3    
       598  -6457806.8    
       599  -6457850.1    
       600  -6457873      
       601  -6457871.9    
       602  -6457836.8    
       603  -6457818.1    
       604  -6457868.2    
       605  -6457832.7    
       606  -6457827.4    
       607  -6457800.2    
       608  -6457847.9    
       609  -6457837.4    
       610  -6457851.9    
       611  -6457856.1    
       612  -6457841.8    
       613  -6457833.9    
       614  -6457839.3    
       615  -6457861      
       616  -6457810.9    
       617  -6457805.7    
       618  -6457791.5    
       619  -6457777.8    
       620  -6457780.8    
       621  -6457834.3    
       622  -6457861.4    
       623  -6457816.5    
       624  -6457836.9    
       625  -6457809.1    
       626  -6457798.9    
       627  -6457837.7    
       628  -6457855.1    
       629  -6457858.7    
       630  -6457869.4    
       631  -6457850      
       632  -6457833.4    
       633  -6457837.5    
       634  -6457812.3    
       635  -6457823.5    
       636  -6457826      
       637  -6457814.2    
       638  -6457816.9    
       639  -6457876.6    
       640  -6457875      
       641  -6457871.5    
       642  -6457862.8    
       643  -6457810.4    
       644  -6457829.7    
       645  -6457828.6    
       646  -6457813.7    
       647  -6457837.8    
       648  -6457847.4    
       649  -6457868      
       650  -6457867.6    
       651  -6457867.5    
       652  -6457862.6    
       653  -6457856.1    
       654  -6457829.1    
       655  -6457827.5    
       656  -6457825.5    
       657  -6457780.7    
       658  -6457800      
       659  -6457839      
       660  -6457824.5    
       661  -6457800.5    
       662  -6457807.4    
       663  -6457800      
       664  -6457794.2    
       665  -6457813      
       666  -6457777.4    
       667  -6457789.3    
       668  -6457782.2    
       669  -6457837.9    
       670  -6457828      
       671  -6457821.5    
       672  -6457814.4    
       673  -6457812.8    
       674  -6457784.3    
       675  -6457795.9    
       676  -6457810.2    
       677  -6457819      
       678  -6457835.4    
       679  -6457868.4    
       680  -6457842.2    
       681  -6457794.6    
       682  -6457785.4    
       683  -6457780.8    
       684  -6457829.1    
       685  -6457819      
       686  -6457839.9    
       687  -6457837.2    
       688  -6457844      
       689  -6457811.4    
       690  -6457764.9    
       691  -6457810.1    
       692  -6457772.7    
       693  -6457775.3    
       694  -6457787.9    
       695  -6457789.2    
       696  -6457821.2    
       697  -6457827.8    
       698  -6457834.8    
       699  -6457843.9    
       700  -6457864.3    
       701  -6457858.5    
       702  -6457864.6    
       703  -6457799.3    
       704  -6457780.9    
       705  -6457810.8    
       706  -6457830      
       707  -6457833.4    
       708  -6457844.9    
       709  -6457848.8    
       710  -6457810.8    
       711  -6457830.3    
       712  -6457808.9    
       713  -6457787.7    
       714  -6457780.3    
       715  -6457803      
       716  -6457803.5    
       717  -6457775.5    
       718  -6457762.7    
       719  -6457802.3    
       720  -6457799.1    
       721  -6457803.8    
       722  -6457767.5    
       723  -6457776.8    
       724  -6457812.4    
       725  -6457813.4    
       726  -6457808.3    
       727  -6457802      
       728  -6457814.9    
       729  -6457811.7    
       730  -6457793      
       731  -6457767.3    
       732  -6457772.7    
       733  -6457758.9    
       734  -6457805.1    
       735  -6457818.2    
       736  -6457809.2    
       737  -6457821.4    
       738  -6457796.8    
       739  -6457810.7    
       740  -6457793.3    
       741  -6457811.5    
       742  -6457776.3    
       743  -6457767.1    
       744  -6457795.2    
       745  -6457792.8    
       746  -6457761.8    
       747  -6457780.9    
       748  -6457750.1    
       749  -6457772.5    
       750  -6457794.3    
       751  -6457770.7    
       752  -6457794.3    
       753  -6457803.1    
       754  -6457808.2    
       755  -6457815      
       756  -6457833      
       757  -6457837.8    
       758  -6457831.9    
       759  -6457785.9    
       760  -6457771.3    
       761  -6457753.8    
       762  -6457747.3    
       763  -6457752.3    
       764  -6457794.5    
       765  -6457774.7    
       766  -6457780.5    
       767  -6457807.9    
       768  -6457799.4    
       769  -6457787.5    
       770  -6457810.4    
       771  -6457829.6    
       772  -6457820.6    
       773  -6457781.6    
       774  -6457805.2    
       775  -6457812      
       776  -6457820.1    
       777  -6457818.7    
       778  -6457793.4    
       779  -6457822.3    
       780  -6457793.2    
       781  -6457801.4    
       782  -6457788.2    
       783  -6457818      
       784  -6457776.6    
       785  -6457810.3    
       786  -6457795.8    
       787  -6457836.2    
       788  -6457791.8    
       789  -6457774      
       790  -6457735.6    
       791  -6457729.5    
       792  -6457731.4    
       793  -6457762.4    
       794  -6457763.8    
       795  -6457785.6    
       796  -6457780.8    
       797  -6457763.2    
       798  -6457780.5    
       799  -6457782.1    
       800  -6457795.8    
       801  -6457789      
       802  -6457812.3    
       803  -6457803.2    
       804  -6457791.2    
       805  -6457786      
       806  -6457815      
       807  -6457804.3    
       808  -6457804.6    
       809  -6457819.2    
       810  -6457792.8    
       811  -6457764.5    
       812  -6457762.3    
       813  -6457751.9    
       814  -6457755.1    
       815  -6457764.1    
       816  -6457779.8    
       817  -6457783.4    
       818  -6457773.3    
       819  -6457775.1    
       820  -6457766.9    
       821  -6457786.3    
       822  -6457762.7    
       823  -6457810.6    
       824  -6457795.5    
       825  -6457801.2    
       826  -6457781.1    
       827  -6457735.3    
       828  -6457708.2    
       829  -6457718.6    
       830  -6457734.9    
       831  -6457749.6    
       832  -6457763.7    
       833  -6457771.7    
       834  -6457784.6    
       835  -6457760.6    
       836  -6457788.2    
       837  -6457793.6    
       838  -6457772.7    
       839  -6457767.2    
       840  -6457759.9    
       841  -6457787      
       842  -6457785.5    
       843  -6457798.3    
       844  -6457816.3    
       845  -6457797.5    
       846  -6457794      
       847  -6457809.6    
       848  -6457788.7    
       849  -6457787.4    
       850  -6457775.7    
       851  -6457774.1    
       852  -6457750.5    
       853  -6457753.7    
       854  -6457754.7    
       855  -6457777.9    
       856  -6457775.9    
       857  -6457750.7    
       858  -6457769.9    
       859  -6457790.4    
       860  -6457786.7    
       861  -6457801.2    
       862  -6457776      
       863  -6457811.5    
       864  -6457817.8    
       865  -6457829.9    
       866  -6457792.8    
       867  -6457764.8    
       868  -6457781.2    
       869  -6457801.4    
       870  -6457796.5    
       871  -6457809.4    
       872  -6457790.6    
       873  -6457809.3    
       874  -6457805      
       875  -6457783.5    
       876  -6457780      
       877  -6457788.5    
       878  -6457752.3    
       879  -6457764      
       880  -6457768.1    
       881  -6457772      
       882  -6457777      
       883  -6457806.7    
       884  -6457798.2    
       885  -6457828.9    
       886  -6457830.5    
       887  -6457792.3    
       888  -6457800.6    
       889  -6457794.5    
       890  -6457765.2    
       891  -6457773.1    
       892  -6457771.1    
       893  -6457812.7    
       894  -6457827.7    
       895  -6457829.6    
       896  -6457812.6    
       897  -6457814.8    
       898  -6457817.6    
       899  -6457845      
       900  -6457825.2    
       901  -6457812.1    
       902  -6457823.3    
       903  -6457825.1    
       904  -6457780.5    
       905  -6457789.7    
       906  -6457801.4    
       907  -6457797.7    
       908  -6457787.4    
       909  -6457777.4    
       910  -6457760.1    
       911  -6457781.1    
       912  -6457746.3    
       913  -6457726.7    
       914  -6457734.2    
       915  -6457727.2    
       916  -6457733.2    
       917  -6457741.6    
       918  -6457778.9    
       919  -6457773.8    
       920  -6457769.8    
       921  -6457752.9    
       922  -6457752.4    
       923  -6457763.9    
       924  -6457791.3    
       925  -6457787.2    
       926  -6457785.5    
       927  -6457753.9    
       928  -6457758.8    
       929  -6457766.2    
       930  -6457798.1    
       931  -6457790.1    
       932  -6457766.6    
       933  -6457776.3    
       934  -6457806.8    
       935  -6457817      
       936  -6457812      
       937  -6457817.4    
       938  -6457817      
       939  -6457820.4    
       940  -6457798.1    
       941  -6457797      
       942  -6457798.7    
       943  -6457765.9    
       944  -6457751.6    
       945  -6457794      
       946  -6457822      
       947  -6457830.5    
       948  -6457826.1    
       949  -6457822.7    
       950  -6457824      
       951  -6457810.8    
       952  -6457825.9    
       953  -6457831.9    
       954  -6457820.6    
       955  -6457834      
       956  -6457800.2    
       957  -6457748      
       958  -6457740.7    
       959  -6457792.9    
       960  -6457803.5    
       961  -6457774.4    
       962  -6457774.9    
       963  -6457760.4    
       964  -6457766.4    
       965  -6457780.8    
       966  -6457779.7    
       967  -6457765.9    
       968  -6457778.6    
       969  -6457755.7    
       970  -6457729.5    
       971  -6457722.6    
       972  -6457725.6    
       973  -6457775.8    
       974  -6457808.6    
       975  -6457814.8    
       976  -6457813      
       977  -6457829.2    
       978  -6457780.5    
       979  -6457753      
       980  -6457769      
       981  -6457785.8    
       982  -6457819.2    
       983  -6457785.2    
       984  -6457745      
       985  -6457766.5    
       986  -6457804.7    
       987  -6457808      
       988  -6457808.7    
       989  -6457818.4    
       990  -6457833      
       991  -6457832.4    
       992  -6457812.4    
       993  -6457813.7    
       994  -6457807.3    
       995  -6457815      
       996  -6457812.2    
       997  -6457810.1    
       998  -6457776.9    
       999  -6457795.8    
      1000  -6457826.2    
Loop time of 327.652 on 1 procs for 1000 steps with 41472 atoms

Performance: 0.132 ns/day, 182.029 hours/ns, 3.052 timesteps/s, 126.573 katom-step/s
80.2% CPU use with 1 MPI tasks x 1 OpenMP threads

MPI task timing breakdown:
Section |  min time  |  avg time  |  max time  |%varavg| %total
---------------------------------------------------------------
Pair    | 51.685     | 51.685     | 51.685     |   0.0 | 15.77
Neigh   | 19.2       | 19.2       | 19.2       |   0.0 |  5.86
Comm    | 0.28076    | 0.28076    | 0.28076    |   0.0 |  0.09
Output  | 0.019284   | 0.019284   | 0.019284   |   0.0 |  0.01
Modify  | 256.3      | 256.3      | 256.3      |   0.0 | 78.22
Other   |            | 0.1716     |            |       |  0.05

Nlocal:          41472 ave       41472 max       41472 min
Histogram: 1 0 0 0 0 0 0 0 0 0
Nghost:          32211 ave       32211 max       32211 min
Histogram: 1 0 0 0 0 0 0 0 0 0
Neighs:              0 ave           0 max           0 min
Histogram: 1 0 0 0 0 0 0 0 0 0
FullNghs:  8.96142e+06 ave 8.96142e+06 max 8.96142e+06 min
Histogram: 1 0 0 0 0 0 0 0 0 0

Total # of neighbors = 8961424
Ave neighs/atom = 216.08372
Neighbor list builds = 100
Dangerous builds not checked
write_data      final.${ibead}
write_data      final.02
System init for write_data ...
Generated 0 of 1 mixed pair_coeff terms from geometric mixing rule

Initializing PI Langevin equation thermostat...
Bead ID    |    omega    |    tau    |    c1    |    c2
    0     0.00000000e+00 1.00000000e+00 9.99750031e-01 2.23578850e-02
    1     2.46383091e+02 2.02936004e-03 8.84094302e-01 4.67308533e-01
    2     4.90393378e+02 1.01958962e-03 7.82550604e-01 6.22586984e-01
    3     7.29680909e+02 6.85231028e-04 6.94307415e-01 7.19678548e-01
    4     9.61941214e+02 5.19782282e-04 6.18183088e-01 7.86034141e-01
    5     1.18493750e+03 4.21963184e-04 5.52960477e-01 8.33207484e-01
    6     1.39652219e+03 3.58032263e-04 4.97449570e-01 8.67492896e-01
    7     1.59465761e+03 3.13546932e-04 4.50530815e-01 8.92760878e-01
    8     1.77743560e+03 2.81304144e-04 4.11182633e-01 9.11552984e-01
    9     1.94309592e+03 2.57321317e-04 3.78496688e-01 9.25602646e-01
    10     2.09004316e+03 2.39229510e-04 3.51684231e-01 9.36118690e-01
    11     2.21686214e+03 2.25544021e-04 3.30076422e-01 9.43954213e-01
    12     2.32233153e+03 2.15300871e-04 3.13120943e-01 9.49713259e-01
    13     2.40543559e+03 2.07862560e-04 3.00376739e-01 9.53820641e-01
    14     2.46537400e+03 2.02808986e-04 2.91508242e-01 9.56568317e-01
    15     2.50156951e+03 1.99874518e-04 2.86280050e-01 9.58145987e-01
    16     2.51367353e+03 1.98912068e-04 2.84552711e-01 9.58660396e-01
    17     2.50156951e+03 1.99874518e-04 2.86280050e-01 9.58145987e-01
    18     2.46537400e+03 2.02808986e-04 2.91508242e-01 9.56568317e-01
    19     2.40543559e+03 2.07862560e-04 3.00376739e-01 9.53820641e-01
    20     2.32233153e+03 2.15300871e-04 3.13120943e-01 9.49713259e-01
    21     2.21686214e+03 2.25544021e-04 3.30076422e-01 9.43954213e-01
    22     2.09004316e+03 2.39229510e-04 3.51684231e-01 9.36118690e-01
    23     1.94309592e+03 2.57321317e-04 3.78496688e-01 9.25602646e-01
    24     1.77743560e+03 2.81304144e-04 4.11182633e-01 9.11552984e-01
    25     1.59465761e+03 3.13546932e-04 4.50530815e-01 8.92760878e-01
    26     1.39652219e+03 3.58032263e-04 4.97449570e-01 8.67492896e-01
    27     1.18493750e+03 4.21963184e-04 5.52960477e-01 8.33207484e-01
    28     9.61941214e+02 5.19782282e-04 6.18183088e-01 7.86034141e-01
    29     7.29680909e+02 6.85231028e-04 6.94307415e-01 7.19678548e-01
    30     4.90393378e+02 1.01958962e-03 7.82550604e-01 6.22586984e-01
    31     2.46383091e+02 2.02936004e-03 8.84094302e-01 4.67308533e-01
PILE_L thermostat successfully initialized!

Total wall time: 0:05:52
