LAMMPS (2 Aug 2023)
Processor partition = 5
OMP_NUM_THREADS environment is not set. Defaulting to 1 thread. (src/comm.cpp:98)
  using 1 OpenMP thread(s) per MPI task
Loaded 1 plugins from /opt/deepmd-kit/lib/deepmd_lmp
clear
OMP_NUM_THREADS environment is not set. Defaulting to 1 thread. (src/comm.cpp:98)
  using 1 OpenMP thread(s) per MPI task
Loaded 1 plugins from /opt/deepmd-kit/lib/deepmd_lmp
# --------------------- VARIABLES-------------------------
variable        ibead           uloop 99 pad
variable        NSTEPS          equal 1000
variable        THERMO_FREQ     equal 1
#variable        DUMP_FREQ       equal 4000
#variable        NREPEAT         equal ${NSTEPS}/${DUMP_FREQ}
variable        TEMP            equal 300.000000
variable        TAU_T           equal 1.000000
# ---------------------- INITIALIZAITION ------------------
units           metal
boundary        p p p
atom_style      atomic
atom_modify     map yes
# --------------------- ATOM DEFINITION ------------------
read_data       /pscratch/sd/y/yifanl/Work/h2o/pimd/initial_config/conf01
Reading data file ...
  orthogonal box = (0 0 0) to (24.76926 24.76926 24.76926)
  1 by 1 by 1 MPI processor grid
  reading atoms ...
  1536 atoms
  read_data CPU = 0.005 seconds
mass            1 16.000000
mass            2 1.000000
replicate       3 3 3
Replication is creating a 3x3x3 = 27 times larger system...
  orthogonal box = (0 0 0) to (74.30778 74.30778 74.30778)
  1 by 1 by 1 MPI processor grid
  41472 atoms
  replicate CPU = 0.003 seconds
# --------------------- FORCE FIELDS ---------------------
pair_style      deepmd /pscratch/sd/y/yifanl/Work/h2o/pimd/benchmark/graph.pb
Summary of lammps deepmd module ...
  >>> Info of deepmd-kit:
  installed to:       /opt/deepmd-kit
  source:             
  source branch:      HEAD
  source commit:      5ec5eae
  source commit at:   2024-02-04 18:53:26 -0500
  support model ver.: 1.1 
  build variant:      cuda
  build with tf inc:  /opt/deepmd-kit/lib/python3.11/site-packages/tensorflow/include;/opt/deepmd-kit/include
  build with tf lib:  /opt/deepmd-kit/lib/python3.11/site-packages/tensorflow/libtensorflow_cc.so.2
  set tf intra_op_parallelism_threads: 0
  set tf inter_op_parallelism_threads: 0
  >>> Info of lammps module:
  use deepmd-kit at:  /opt/deepmd-kitpair_coeff * *
# --------------------- MD SETTINGS ----------------------
neighbor        2.0 bin
neigh_modify    every 10 delay 0 check no
timestep        0.000500
thermo          ${THERMO_FREQ}
thermo          1
thermo_style    custom step pe
#dump            1 all custom ${DUMP_FREQ} ${ibead}.xyz id type x y z
#dump_modify     1 sort id
fix 1 all pimd/langevin ensemble nvt integrator obabo temp ${TEMP} thermostat PILE_L 1234 tau ${TAU_T}
fix 1 all pimd/langevin ensemble nvt integrator obabo temp 300 thermostat PILE_L 1234 tau ${TAU_T}
fix 1 all pimd/langevin ensemble nvt integrator obabo temp 300 thermostat PILE_L 1234 tau 1
# --------------------- RUN ------------------------------
run             ${NSTEPS}
run             1000

CITE-CITE-CITE-CITE-CITE-CITE-CITE-CITE-CITE-CITE-CITE-CITE-CITE

Your simulation uses code contributions which should be cited:

- USER-DEEPMD package:

@article{Wang_ComputPhysCommun_2018_v228_p178,
  author = {Wang, Han and Zhang, Linfeng and Han, Jiequn and E, Weinan},
  doi = {10.1016/j.cpc.2018.03.016},
  url = {https://doi.org/10.1016/j.cpc.2018.03.016},
  year = 2018,
  month = {jul},
  publisher = {Elsevier {BV}},
  volume = 228,
  journal = {Comput. Phys. Commun.},
  title = {{DeePMD-kit: A deep learning package for many-body potential energy representation and molecular dynamics}},
  pages = {178--184}
}
@misc{Zeng_JChemPhys_2023_v159_p054801,
  title  = {{DeePMD-kit v2: A software package for deep potential models}},
  author =   {Jinzhe Zeng and Duo Zhang and Denghui Lu and Pinghui Mo and Zeyu Li
         and Yixiao Chen and Mari{\'a}n Rynik and Li'ang Huang and Ziyao Li and 
         Shaochen Shi and Yingze Wang and Haotian Ye and Ping Tuo and Jiabin
         Yang and Ye Ding and Yifan Li and Davide Tisi and Qiyu Zeng and Han 
         Bao and Yu Xia and Jiameng Huang and Koki Muraoka and Yibo Wang and 
         Junhan Chang and Fengbo Yuan and Sigbj{\o}rn L{\o}land Bore and Chun
         Cai and Yinnian Lin and Bo Wang and Jiayan Xu and Jia-Xin Zhu and 
         Chenxing Luo and Yuzhi Zhang and Rhys E A Goodall and Wenshuo Liang
         and Anurag Kumar Singh and Sikai Yao and Jingchao Zhang and Renata
         Wentzcovitch and Jiequn Han and Jie Liu and Weile Jia and Darrin M
         York and Weinan E and Roberto Car and Linfeng Zhang and Han Wang},
  journal =  {J. Chem. Phys.},
  volume =   159,
  issue =    5,  
  year =    2023,
  pages  =   054801,
  doi =      {10.1063/5.0155600},
}

CITE-CITE-CITE-CITE-CITE-CITE-CITE-CITE-CITE-CITE-CITE-CITE-CITE

Generated 0 of 1 mixed pair_coeff terms from geometric mixing rule

Initializing PI Langevin equation thermostat...
Bead ID    |    omega    |    tau    |    c1    |    c2
    0     0.00000000e+00 1.00000000e+00 9.99750031e-01 2.23578850e-02
    1     2.46383091e+02 2.02936004e-03 8.84094302e-01 4.67308533e-01
    2     4.90393378e+02 1.01958962e-03 7.82550604e-01 6.22586984e-01
    3     7.29680909e+02 6.85231028e-04 6.94307415e-01 7.19678548e-01
    4     9.61941214e+02 5.19782282e-04 6.18183088e-01 7.86034141e-01
    5     1.18493750e+03 4.21963184e-04 5.52960477e-01 8.33207484e-01
    6     1.39652219e+03 3.58032263e-04 4.97449570e-01 8.67492896e-01
    7     1.59465761e+03 3.13546932e-04 4.50530815e-01 8.92760878e-01
    8     1.77743560e+03 2.81304144e-04 4.11182633e-01 9.11552984e-01
    9     1.94309592e+03 2.57321317e-04 3.78496688e-01 9.25602646e-01
    10     2.09004316e+03 2.39229510e-04 3.51684231e-01 9.36118690e-01
    11     2.21686214e+03 2.25544021e-04 3.30076422e-01 9.43954213e-01
    12     2.32233153e+03 2.15300871e-04 3.13120943e-01 9.49713259e-01
    13     2.40543559e+03 2.07862560e-04 3.00376739e-01 9.53820641e-01
    14     2.46537400e+03 2.02808986e-04 2.91508242e-01 9.56568317e-01
    15     2.50156951e+03 1.99874518e-04 2.86280050e-01 9.58145987e-01
    16     2.51367353e+03 1.98912068e-04 2.84552711e-01 9.58660396e-01
    17     2.50156951e+03 1.99874518e-04 2.86280050e-01 9.58145987e-01
    18     2.46537400e+03 2.02808986e-04 2.91508242e-01 9.56568317e-01
    19     2.40543559e+03 2.07862560e-04 3.00376739e-01 9.53820641e-01
    20     2.32233153e+03 2.15300871e-04 3.13120943e-01 9.49713259e-01
    21     2.21686214e+03 2.25544021e-04 3.30076422e-01 9.43954213e-01
    22     2.09004316e+03 2.39229510e-04 3.51684231e-01 9.36118690e-01
    23     1.94309592e+03 2.57321317e-04 3.78496688e-01 9.25602646e-01
    24     1.77743560e+03 2.81304144e-04 4.11182633e-01 9.11552984e-01
    25     1.59465761e+03 3.13546932e-04 4.50530815e-01 8.92760878e-01
    26     1.39652219e+03 3.58032263e-04 4.97449570e-01 8.67492896e-01
    27     1.18493750e+03 4.21963184e-04 5.52960477e-01 8.33207484e-01
    28     9.61941214e+02 5.19782282e-04 6.18183088e-01 7.86034141e-01
    29     7.29680909e+02 6.85231028e-04 6.94307415e-01 7.19678548e-01
    30     4.90393378e+02 1.01958962e-03 7.82550604e-01 6.22586984e-01
    31     2.46383091e+02 2.02936004e-03 8.84094302e-01 4.67308533e-01
PILE_L thermostat successfully initialized!

Neighbor list info ...
  update: every = 10 steps, delay = 0 steps, check = no
  max neighbors/atom: 2000, page size: 100000
  master list distance cutoff = 8
  ghost atom cutoff = 8
  binsize = 4, bins = 19 19 19
  1 neighbor lists, perpetual/occasional/extra = 1 0 0
  (1) pair deepmd, perpetual
      attributes: full, newton on
      pair build: full/bin/atomonly
      stencil: full/bin/3d
      bin: standard
Per MPI rank memory allocation (min/avg/max) = 47.09 | 47.09 | 47.09 Mbytes
   Step         PotEng    
         0  -6460847.9    
         1  -6460115.8    
         2  -6459535.6    
         3  -6459133.5    
         4  -6458833.3    
         5  -6458592.3    
         6  -6458341.3    
         7  -6458138.1    
         8  -6458019.2    
         9  -6457944.2    
        10  -6457935.4    
        11  -6457962.7    
        12  -6458017.6    
        13  -6458083.7    
        14  -6458072.5    
        15  -6458040.7    
        16  -6457999.8    
        17  -6457944.7    
        18  -6457904.6    
        19  -6457907.4    
        20  -6457920.2    
        21  -6457995      
        22  -6458074.5    
        23  -6458155.1    
        24  -6458210      
        25  -6458266.7    
        26  -6458235.3    
        27  -6458179      
        28  -6458121.3    
        29  -6458110.4    
        30  -6458118.3    
        31  -6458140.3    
        32  -6458131.6    
        33  -6458122.8    
        34  -6458074.1    
        35  -6458037      
        36  -6457941.5    
        37  -6457895.5    
        38  -6457889.5    
        39  -6457882.3    
        40  -6457900.6    
        41  -6457936.3    
        42  -6457933.3    
        43  -6457968.4    
        44  -6457995.1    
        45  -6457991.5    
        46  -6458003      
        47  -6457977.3    
        48  -6457974.2    
        49  -6457990.4    
        50  -6458008.3    
        51  -6457998.4    
        52  -6458023.7    
        53  -6458033.8    
        54  -6458009.1    
        55  -6458007      
        56  -6457972.7    
        57  -6457955.7    
        58  -6457960.7    
        59  -6457940.3    
        60  -6457946.7    
        61  -6457963.7    
        62  -6457984.8    
        63  -6457975.2    
        64  -6458031.3    
        65  -6458079.2    
        66  -6458108.1    
        67  -6458102.1    
        68  -6458085      
        69  -6458054.6    
        70  -6458119.2    
        71  -6458082.5    
        72  -6458026.5    
        73  -6458061.3    
        74  -6458018.5    
        75  -6458074.8    
        76  -6458034.5    
        77  -6458033.1    
        78  -6458030.1    
        79  -6458030.6    
        80  -6457981.3    
        81  -6457963.5    
        82  -6457942.9    
        83  -6457971.4    
        84  -6458009.1    
        85  -6458015.7    
        86  -6458019.8    
        87  -6458061.7    
        88  -6458081.5    
        89  -6458095.1    
        90  -6458131.3    
        91  -6458134.9    
        92  -6458125.1    
        93  -6458106.8    
        94  -6458082      
        95  -6458032.6    
        96  -6458020.3    
        97  -6458012.7    
        98  -6457997.2    
        99  -6458002.1    
       100  -6457988.6    
       101  -6457968.2    
       102  -6457989.1    
       103  -6457976.1    
       104  -6457955      
       105  -6457967.9    
       106  -6457959.2    
       107  -6457986.3    
       108  -6458021.9    
       109  -6458039.6    
       110  -6458049.6    
       111  -6458044.3    
       112  -6458062.6    
       113  -6458055.5    
       114  -6458056.2    
       115  -6458048.9    
       116  -6458012.5    
       117  -6458010.6    
       118  -6458013.3    
       119  -6458015.1    
       120  -6457967.8    
       121  -6457955.4    
       122  -6457938.8    
       123  -6457959.2    
       124  -6457998      
       125  -6457986.1    
       126  -6457972.5    
       127  -6458013.7    
       128  -6458043.8    
       129  -6458022.7    
       130  -6458071.7    
       131  -6458060.1    
       132  -6458040.3    
       133  -6458014.3    
       134  -6458029.1    
       135  -6458021      
       136  -6457974.8    
       137  -6457962.2    
       138  -6457957.9    
       139  -6457948.3    
       140  -6457928.5    
       141  -6457920.4    
       142  -6457933      
       143  -6457949.4    
       144  -6457960.5    
       145  -6457968.2    
       146  -6457978.3    
       147  -6457967.1    
       148  -6458003.3    
       149  -6458024.5    
       150  -6458009.9    
       151  -6457992.6    
       152  -6458032.6    
       153  -6458033      
       154  -6458013.1    
       155  -6458038.1    
       156  -6458037.3    
       157  -6458020.8    
       158  -6458004.6    
       159  -6458007      
       160  -6457974.5    
       161  -6457973.2    
       162  -6458000.4    
       163  -6457977.4    
       164  -6458017.3    
       165  -6458014.2    
       166  -6457995.5    
       167  -6457980.8    
       168  -6457960.2    
       169  -6457956.3    
       170  -6457986      
       171  -6458022      
       172  -6458032.8    
       173  -6457999.6    
       174  -6457978.5    
       175  -6457962.6    
       176  -6457978.2    
       177  -6457989.4    
       178  -6457993.7    
       179  -6457983.6    
       180  -6457990.9    
       181  -6457963.1    
       182  -6457899.5    
       183  -6457893.7    
       184  -6457907.8    
       185  -6457928.2    
       186  -6457953      
       187  -6457980.8    
       188  -6458004.2    
       189  -6457964      
       190  -6457947.9    
       191  -6457954.8    
       192  -6457940.9    
       193  -6457981.9    
       194  -6457985.5    
       195  -6457929.8    
       196  -6457954.7    
       197  -6457987.4    
       198  -6458010      
       199  -6457976      
       200  -6457959      
       201  -6457945.9    
       202  -6457909.4    
       203  -6457953.8    
       204  -6457940.2    
       205  -6457932      
       206  -6457949.9    
       207  -6457954.3    
       208  -6457958.6    
       209  -6457970      
       210  -6458004      
       211  -6457985.8    
       212  -6457966.8    
       213  -6457943      
       214  -6457948.6    
       215  -6457945.7    
       216  -6457913.5    
       217  -6457928.5    
       218  -6457971.9    
       219  -6457986.4    
       220  -6457937.3    
       221  -6457909.2    
       222  -6457920.9    
       223  -6457904.3    
       224  -6457922.2    
       225  -6457907.8    
       226  -6457926.5    
       227  -6457908.8    
       228  -6457931.9    
       229  -6457941.5    
       230  -6457929.2    
       231  -6457912.6    
       232  -6457928.2    
       233  -6457924.7    
       234  -6457906.2    
       235  -6457942.8    
       236  -6457937.6    
       237  -6457942      
       238  -6457976.7    
       239  -6457965      
       240  -6457950      
       241  -6457962.3    
       242  -6457956.9    
       243  -6457933.3    
       244  -6457930.7    
       245  -6457913.1    
       246  -6457923.8    
       247  -6457937.2    
       248  -6457922.9    
       249  -6457910.5    
       250  -6457872.8    
       251  -6457915.6    
       252  -6457927.5    
       253  -6457926.5    
       254  -6457952.7    
       255  -6457980.6    
       256  -6457976.3    
       257  -6457952.5    
       258  -6457974.1    
       259  -6457935.9    
       260  -6457978.1    
       261  -6457967      
       262  -6457989.6    
       263  -6457954.9    
       264  -6457991.6    
       265  -6457996.3    
       266  -6457956.5    
       267  -6457893.6    
       268  -6457930.7    
       269  -6457937.3    
       270  -6457906.5    
       271  -6457929.5    
       272  -6457935.9    
       273  -6457933.8    
       274  -6457946.9    
       275  -6457944.2    
       276  -6457903      
       277  -6457938      
       278  -6457907.5    
       279  -6457898.4    
       280  -6457874.4    
       281  -6457880      
       282  -6457896.7    
       283  -6457904.1    
       284  -6457921.3    
       285  -6457921.2    
       286  -6457949.3    
       287  -6457928.9    
       288  -6457929.7    
       289  -6457942.3    
       290  -6457911.8    
       291  -6457892.3    
       292  -6457888.6    
       293  -6457918.7    
       294  -6457908.6    
       295  -6457895.4    
       296  -6457892.1    
       297  -6457900      
       298  -6457935.3    
       299  -6457964.8    
       300  -6457933.8    
       301  -6457919.8    
       302  -6457922.9    
       303  -6457902.2    
       304  -6457917.4    
       305  -6457917.5    
       306  -6457925.6    
       307  -6457929.3    
       308  -6457900.7    
       309  -6457902.8    
       310  -6457912.1    
       311  -6457925.5    
       312  -6457918.8    
       313  -6457916.2    
       314  -6457861.8    
       315  -6457863.2    
       316  -6457899.7    
       317  -6457915.2    
       318  -6457890.1    
       319  -6457917.2    
       320  -6457915.8    
       321  -6457896.4    
       322  -6457866.4    
       323  -6457899.2    
       324  -6457899.7    
       325  -6457892.8    
       326  -6457882.8    
       327  -6457876.7    
       328  -6457908.1    
       329  -6457904.1    
       330  -6457909.9    
       331  -6457909.2    
       332  -6457912.5    
       333  -6457895.5    
       334  -6457889.7    
       335  -6457867.7    
       336  -6457904.3    
       337  -6457886.8    
       338  -6457903.5    
       339  -6457931      
       340  -6457887.5    
       341  -6457900.9    
       342  -6457899.9    
       343  -6457880.3    
       344  -6457894.6    
       345  -6457891.2    
       346  -6457901.8    
       347  -6457879      
       348  -6457874.2    
       349  -6457856.4    
       350  -6457850.7    
       351  -6457851.4    
       352  -6457893.8    
       353  -6457897      
       354  -6457877.6    
       355  -6457883.6    
       356  -6457909.7    
       357  -6457868.6    
       358  -6457836.9    
       359  -6457834.5    
       360  -6457840.9    
       361  -6457874.7    
       362  -6457903      
       363  -6457913.3    
       364  -6457893      
       365  -6457863.2    
       366  -6457883.6    
       367  -6457891.3    
       368  -6457853.2    
       369  -6457813      
       370  -6457809.2    
       371  -6457837.2    
       372  -6457866.8    
       373  -6457838.9    
       374  -6457842.6    
       375  -6457867.4    
       376  -6457848.8    
       377  -6457861.5    
       378  -6457873.2    
       379  -6457868.4    
       380  -6457877.1    
       381  -6457882.5    
       382  -6457873.4    
       383  -6457837.2    
       384  -6457829.4    
       385  -6457825.3    
       386  -6457842.7    
       387  -6457819.1    
       388  -6457807.5    
       389  -6457860.7    
       390  -6457873.5    
       391  -6457919.8    
       392  -6457893.3    
       393  -6457875.8    
       394  -6457878.9    
       395  -6457863.1    
       396  -6457879.8    
       397  -6457880.1    
       398  -6457873.2    
       399  -6457876.9    
       400  -6457879.1    
       401  -6457894.6    
       402  -6457859.9    
       403  -6457837.5    
       404  -6457902.9    
       405  -6457940.3    
       406  -6457944.6    
       407  -6457911.4    
       408  -6457879.2    
       409  -6457897.8    
       410  -6457946.9    
       411  -6457911.8    
       412  -6457905.2    
       413  -6457886.1    
       414  -6457855      
       415  -6457875.4    
       416  -6457865      
       417  -6457864.2    
       418  -6457862.2    
       419  -6457847.3    
       420  -6457841.2    
       421  -6457858.2    
       422  -6457856.4    
       423  -6457824.7    
       424  -6457799.9    
       425  -6457832.3    
       426  -6457832      
       427  -6457848.3    
       428  -6457841.1    
       429  -6457855.4    
       430  -6457865      
       431  -6457874.7    
       432  -6457854.3    
       433  -6457812.9    
       434  -6457840.2    
       435  -6457855.1    
       436  -6457887.9    
       437  -6457866.3    
       438  -6457850.4    
       439  -6457849.8    
       440  -6457878.7    
       441  -6457882.8    
       442  -6457879.9    
       443  -6457903.7    
       444  -6457888.3    
       445  -6457855.6    
       446  -6457854.9    
       447  -6457827.7    
       448  -6457850.1    
       449  -6457859.9    
       450  -6457860.8    
       451  -6457871.6    
       452  -6457881.8    
       453  -6457863.5    
       454  -6457876.6    
       455  -6457874.9    
       456  -6457842.6    
       457  -6457849.2    
       458  -6457842.7    
       459  -6457863.8    
       460  -6457851.7    
       461  -6457843.7    
       462  -6457876.4    
       463  -6457862.5    
       464  -6457880.6    
       465  -6457873.7    
       466  -6457885.2    
       467  -6457882.9    
       468  -6457855.1    
       469  -6457876.5    
       470  -6457882.8    
       471  -6457899.6    
       472  -6457913.5    
       473  -6457912.9    
       474  -6457908.9    
       475  -6457869.9    
       476  -6457869.6    
       477  -6457824.8    
       478  -6457835.8    
       479  -6457844.1    
       480  -6457867.4    
       481  -6457865.4    
       482  -6457869.6    
       483  -6457867.7    
       484  -6457846.7    
       485  -6457882.9    
       486  -6457867.1    
       487  -6457842.7    
       488  -6457850      
       489  -6457854      
       490  -6457867.7    
       491  -6457902.2    
       492  -6457861.7    
       493  -6457867.1    
       494  -6457867      
       495  -6457869.6    
       496  -6457841.1    
       497  -6457840.9    
       498  -6457813.5    
       499  -6457792.6    
       500  -6457840.8    
       501  -6457858.2    
       502  -6457868.6    
       503  -6457853      
       504  -6457892.6    
       505  -6457870.6    
       506  -6457869.5    
       507  -6457847.4    
       508  -6457883.2    
       509  -6457854.9    
       510  -6457822.6    
       511  -6457871.1    
       512  -6457846.9    
       513  -6457820.2    
       514  -6457833.5    
       515  -6457869.6    
       516  -6457858.4    
       517  -6457853.6    
       518  -6457814.8    
       519  -6457839.5    
       520  -6457833.2    
       521  -6457848.9    
       522  -6457846.1    
       523  -6457852.8    
       524  -6457842.4    
       525  -6457857.7    
       526  -6457825.9    
       527  -6457881.8    
       528  -6457900.2    
       529  -6457861.7    
       530  -6457901.9    
       531  -6457890      
       532  -6457903.9    
       533  -6457851.7    
       534  -6457856.6    
       535  -6457835.9    
       536  -6457867.2    
       537  -6457830.9    
       538  -6457878.3    
       539  -6457867.6    
       540  -6457883.5    
       541  -6457885.1    
       542  -6457875.2    
       543  -6457868.4    
       544  -6457877.2    
       545  -6457881.8    
       546  -6457885.9    
       547  -6457888.9    
       548  -6457898.4    
       549  -6457879.7    
       550  -6457830.6    
       551  -6457831.7    
       552  -6457841.3    
       553  -6457834.5    
       554  -6457853      
       555  -6457869      
       556  -6457858      
       557  -6457856.9    
       558  -6457879.1    
       559  -6457857.3    
       560  -6457805.2    
       561  -6457821.2    
       562  -6457853.9    
       563  -6457840.3    
       564  -6457868.5    
       565  -6457860.6    
       566  -6457873.7    
       567  -6457855.8    
       568  -6457837.4    
       569  -6457834.7    
       570  -6457834      
       571  -6457843      
       572  -6457881.9    
       573  -6457877.4    
       574  -6457874.8    
       575  -6457872.2    
       576  -6457869.4    
       577  -6457884.3    
       578  -6457899.3    
       579  -6457855.4    
       580  -6457884.2    
       581  -6457859.2    
       582  -6457856.9    
       583  -6457845.7    
       584  -6457834.7    
       585  -6457852.3    
       586  -6457850.9    
       587  -6457829.8    
       588  -6457824.2    
       589  -6457829.9    
       590  -6457851.3    
       591  -6457870.4    
       592  -6457851.9    
       593  -6457819.6    
       594  -6457788      
       595  -6457826.2    
       596  -6457854.3    
       597  -6457854      
       598  -6457824.1    
       599  -6457825.5    
       600  -6457870.4    
       601  -6457863.7    
       602  -6457864      
       603  -6457879.8    
       604  -6457881.2    
       605  -6457873.2    
       606  -6457889.4    
       607  -6457862.1    
       608  -6457845.4    
       609  -6457893.2    
       610  -6457857      
       611  -6457847.8    
       612  -6457810.2    
       613  -6457817.3    
       614  -6457818.4    
       615  -6457836.6    
       616  -6457838.3    
       617  -6457837.6    
       618  -6457814.1    
       619  -6457836.8    
       620  -6457819      
       621  -6457808      
       622  -6457784.6    
       623  -6457804.7    
       624  -6457783.9    
       625  -6457816.8    
       626  -6457784.3    
       627  -6457802      
       628  -6457822.6    
       629  -6457832.5    
       630  -6457816.6    
       631  -6457797.9    
       632  -6457827.3    
       633  -6457834.9    
       634  -6457791.8    
       635  -6457759      
       636  -6457819.3    
       637  -6457818.6    
       638  -6457807.8    
       639  -6457820.7    
       640  -6457819.9    
       641  -6457833.5    
       642  -6457800.3    
       643  -6457791.2    
       644  -6457806.4    
       645  -6457852.7    
       646  -6457867.9    
       647  -6457894.2    
       648  -6457863.5    
       649  -6457849.1    
       650  -6457855.6    
       651  -6457863.8    
       652  -6457845.8    
       653  -6457856      
       654  -6457847.2    
       655  -6457835.2    
       656  -6457823.6    
       657  -6457798.3    
       658  -6457810.4    
       659  -6457824.9    
       660  -6457831      
       661  -6457838.9    
       662  -6457836.3    
       663  -6457817.7    
       664  -6457846.1    
       665  -6457816.7    
       666  -6457802.8    
       667  -6457836.5    
       668  -6457850.7    
       669  -6457842.9    
       670  -6457832.6    
       671  -6457796.1    
       672  -6457782.9    
       673  -6457797.9    
       674  -6457825.2    
       675  -6457812.6    
       676  -6457801.7    
       677  -6457796      
       678  -6457806.4    
       679  -6457823.7    
       680  -6457805.4    
       681  -6457778.4    
       682  -6457762.4    
       683  -6457769      
       684  -6457791.8    
       685  -6457811.4    
       686  -6457767.8    
       687  -6457756.2    
       688  -6457763.5    
       689  -6457805.1    
       690  -6457819.6    
       691  -6457822.3    
       692  -6457837.4    
       693  -6457872.6    
       694  -6457826      
       695  -6457809.1    
       696  -6457821      
       697  -6457818.7    
       698  -6457815.8    
       699  -6457775.5    
       700  -6457782.7    
       701  -6457809.7    
       702  -6457817.7    
       703  -6457836.3    
       704  -6457815      
       705  -6457823.8    
       706  -6457790.7    
       707  -6457749.5    
       708  -6457757.1    
       709  -6457794.2    
       710  -6457770.4    
       711  -6457763.9    
       712  -6457756.3    
       713  -6457781.8    
       714  -6457780.7    
       715  -6457776.8    
       716  -6457796.2    
       717  -6457781.9    
       718  -6457768.5    
       719  -6457790.6    
       720  -6457780.4    
       721  -6457790.8    
       722  -6457815.7    
       723  -6457830.1    
       724  -6457786.4    
       725  -6457795.6    
       726  -6457797      
       727  -6457772.8    
       728  -6457771.8    
       729  -6457773.5    
       730  -6457773.4    
       731  -6457767.8    
       732  -6457787.9    
       733  -6457786.1    
       734  -6457753      
       735  -6457761.8    
       736  -6457779.4    
       737  -6457786.2    
       738  -6457791.4    
       739  -6457777.3    
       740  -6457762.2    
       741  -6457788.7    
       742  -6457787.3    
       743  -6457759.2    
       744  -6457756.2    
       745  -6457790.9    
       746  -6457788.6    
       747  -6457816.5    
       748  -6457809.8    
       749  -6457823.2    
       750  -6457814.6    
       751  -6457808.1    
       752  -6457777.4    
       753  -6457789.9    
       754  -6457779.5    
       755  -6457768.1    
       756  -6457770.7    
       757  -6457755.6    
       758  -6457771.2    
       759  -6457779.9    
       760  -6457797.3    
       761  -6457820      
       762  -6457816      
       763  -6457775.4    
       764  -6457808.2    
       765  -6457824.5    
       766  -6457794.4    
       767  -6457747      
       768  -6457738      
       769  -6457753      
       770  -6457801      
       771  -6457818.9    
       772  -6457846.3    
       773  -6457779.9    
       774  -6457745.7    
       775  -6457792.7    
       776  -6457776.3    
       777  -6457753.7    
       778  -6457755.4    
       779  -6457732.2    
       780  -6457757      
       781  -6457760      
       782  -6457806.1    
       783  -6457817.7    
       784  -6457830.5    
       785  -6457807.9    
       786  -6457801.7    
       787  -6457750.7    
       788  -6457762.3    
       789  -6457740.5    
       790  -6457746.8    
       791  -6457774.1    
       792  -6457760.6    
       793  -6457715.8    
       794  -6457745.8    
       795  -6457783.3    
       796  -6457758      
       797  -6457751.6    
       798  -6457776.8    
       799  -6457787.2    
       800  -6457813.7    
       801  -6457819.7    
       802  -6457828.3    
       803  -6457804.7    
       804  -6457778.9    
       805  -6457800      
       806  -6457797.4    
       807  -6457819      
       808  -6457819.7    
       809  -6457848.1    
       810  -6457814.9    
       811  -6457832      
       812  -6457804.8    
       813  -6457792.8    
       814  -6457803.8    
       815  -6457790.9    
       816  -6457830.9    
       817  -6457786.5    
       818  -6457812.3    
       819  -6457803.3    
       820  -6457793.7    
       821  -6457784.8    
       822  -6457800.1    
       823  -6457797.1    
       824  -6457810.3    
       825  -6457786.3    
       826  -6457778.6    
       827  -6457786      
       828  -6457803.4    
       829  -6457775.4    
       830  -6457782.1    
       831  -6457803.4    
       832  -6457787.1    
       833  -6457770.3    
       834  -6457800.9    
       835  -6457760.8    
       836  -6457776.6    
       837  -6457734      
       838  -6457723.4    
       839  -6457752.8    
       840  -6457800.8    
       841  -6457790.6    
       842  -6457788.8    
       843  -6457783.9    
       844  -6457812.4    
       845  -6457835.1    
       846  -6457831.3    
       847  -6457812.7    
       848  -6457786.8    
       849  -6457790.9    
       850  -6457830.1    
       851  -6457838.6    
       852  -6457809.2    
       853  -6457777      
       854  -6457775.7    
       855  -6457783.4    
       856  -6457763.9    
       857  -6457748.5    
       858  -6457767.8    
       859  -6457774.7    
       860  -6457778.1    
       861  -6457808.5    
       862  -6457791.6    
       863  -6457775.2    
       864  -6457762.4    
       865  -6457757.5    
       866  -6457748.9    
       867  -6457755.6    
       868  -6457796.5    
       869  -6457799.3    
       870  -6457787.1    
       871  -6457786.6    
       872  -6457760      
       873  -6457793.3    
       874  -6457803.8    
       875  -6457804.2    
       876  -6457767.8    
       877  -6457770.4    
       878  -6457763.6    
       879  -6457783.6    
       880  -6457777.4    
       881  -6457792.8    
       882  -6457771.6    
       883  -6457780.5    
       884  -6457762.9    
       885  -6457776.3    
       886  -6457763.2    
       887  -6457796.6    
       888  -6457813.9    
       889  -6457786      
       890  -6457818.7    
       891  -6457808.3    
       892  -6457772.7    
       893  -6457761.4    
       894  -6457774.3    
       895  -6457787.3    
       896  -6457765.5    
       897  -6457756.7    
       898  -6457790      
       899  -6457814.1    
       900  -6457812.8    
       901  -6457793.3    
       902  -6457834.3    
       903  -6457855.5    
       904  -6457806.1    
       905  -6457780.5    
       906  -6457787.7    
       907  -6457758.9    
       908  -6457754.8    
       909  -6457761.1    
       910  -6457755.5    
       911  -6457766.6    
       912  -6457744.7    
       913  -6457755.4    
       914  -6457721.5    
       915  -6457730.1    
       916  -6457750.5    
       917  -6457768.9    
       918  -6457755.5    
       919  -6457727.3    
       920  -6457719.4    
       921  -6457753.9    
       922  -6457756.6    
       923  -6457768.9    
       924  -6457805.4    
       925  -6457820.1    
       926  -6457811.3    
       927  -6457757.3    
       928  -6457752.2    
       929  -6457731.1    
       930  -6457803.5    
       931  -6457816.4    
       932  -6457832.8    
       933  -6457779.1    
       934  -6457771.3    
       935  -6457786.6    
       936  -6457789.3    
       937  -6457807.5    
       938  -6457807      
       939  -6457763      
       940  -6457822.2    
       941  -6457826.5    
       942  -6457823.8    
       943  -6457825      
       944  -6457807.5    
       945  -6457789.9    
       946  -6457771.9    
       947  -6457720.7    
       948  -6457725      
       949  -6457792.6    
       950  -6457793.4    
       951  -6457767.6    
       952  -6457787.9    
       953  -6457774.2    
       954  -6457808      
       955  -6457818.5    
       956  -6457831.7    
       957  -6457811.1    
       958  -6457808.4    
       959  -6457783.5    
       960  -6457760.5    
       961  -6457775.1    
       962  -6457795      
       963  -6457813.8    
       964  -6457835.8    
       965  -6457845      
       966  -6457804.8    
       967  -6457830.1    
       968  -6457822.9    
       969  -6457784.3    
       970  -6457763.4    
       971  -6457755.7    
       972  -6457774.5    
       973  -6457803.9    
       974  -6457784.2    
       975  -6457775.6    
       976  -6457778.4    
       977  -6457767.5    
       978  -6457770.1    
       979  -6457798.8    
       980  -6457786.3    
       981  -6457771.7    
       982  -6457792.5    
       983  -6457787.6    
       984  -6457817.5    
       985  -6457810.5    
       986  -6457789.2    
       987  -6457783.5    
       988  -6457790.4    
       989  -6457760.2    
       990  -6457797.4    
       991  -6457806.7    
       992  -6457801.3    
       993  -6457772.3    
       994  -6457801.6    
       995  -6457804.7    
       996  -6457786.2    
       997  -6457808.9    
       998  -6457792.9    
       999  -6457798.7    
      1000  -6457802.2    
Loop time of 327.708 on 1 procs for 1000 steps with 41472 atoms

Performance: 0.132 ns/day, 182.060 hours/ns, 3.052 timesteps/s, 126.552 katom-step/s
80.5% CPU use with 1 MPI tasks x 1 OpenMP threads

MPI task timing breakdown:
Section |  min time  |  avg time  |  max time  |%varavg| %total
---------------------------------------------------------------
Pair    | 51.033     | 51.033     | 51.033     |   0.0 | 15.57
Neigh   | 19.294     | 19.294     | 19.294     |   0.0 |  5.89
Comm    | 0.22578    | 0.22578    | 0.22578    |   0.0 |  0.07
Output  | 0.020535   | 0.020535   | 0.020535   |   0.0 |  0.01
Modify  | 257        | 257        | 257        |   0.0 | 78.42
Other   |            | 0.1309     |            |       |  0.04

Nlocal:          41472 ave       41472 max       41472 min
Histogram: 1 0 0 0 0 0 0 0 0 0
Nghost:          32239 ave       32239 max       32239 min
Histogram: 1 0 0 0 0 0 0 0 0 0
Neighs:              0 ave           0 max           0 min
Histogram: 1 0 0 0 0 0 0 0 0 0
FullNghs:  8.96252e+06 ave 8.96252e+06 max 8.96252e+06 min
Histogram: 1 0 0 0 0 0 0 0 0 0

Total # of neighbors = 8962524
Ave neighs/atom = 216.11024
Neighbor list builds = 100
Dangerous builds not checked
write_data      final.${ibead}
write_data      final.06
System init for write_data ...
Generated 0 of 1 mixed pair_coeff terms from geometric mixing rule

Initializing PI Langevin equation thermostat...
Bead ID    |    omega    |    tau    |    c1    |    c2
    0     0.00000000e+00 1.00000000e+00 9.99750031e-01 2.23578850e-02
    1     2.46383091e+02 2.02936004e-03 8.84094302e-01 4.67308533e-01
    2     4.90393378e+02 1.01958962e-03 7.82550604e-01 6.22586984e-01
    3     7.29680909e+02 6.85231028e-04 6.94307415e-01 7.19678548e-01
    4     9.61941214e+02 5.19782282e-04 6.18183088e-01 7.86034141e-01
    5     1.18493750e+03 4.21963184e-04 5.52960477e-01 8.33207484e-01
    6     1.39652219e+03 3.58032263e-04 4.97449570e-01 8.67492896e-01
    7     1.59465761e+03 3.13546932e-04 4.50530815e-01 8.92760878e-01
    8     1.77743560e+03 2.81304144e-04 4.11182633e-01 9.11552984e-01
    9     1.94309592e+03 2.57321317e-04 3.78496688e-01 9.25602646e-01
    10     2.09004316e+03 2.39229510e-04 3.51684231e-01 9.36118690e-01
    11     2.21686214e+03 2.25544021e-04 3.30076422e-01 9.43954213e-01
    12     2.32233153e+03 2.15300871e-04 3.13120943e-01 9.49713259e-01
    13     2.40543559e+03 2.07862560e-04 3.00376739e-01 9.53820641e-01
    14     2.46537400e+03 2.02808986e-04 2.91508242e-01 9.56568317e-01
    15     2.50156951e+03 1.99874518e-04 2.86280050e-01 9.58145987e-01
    16     2.51367353e+03 1.98912068e-04 2.84552711e-01 9.58660396e-01
    17     2.50156951e+03 1.99874518e-04 2.86280050e-01 9.58145987e-01
    18     2.46537400e+03 2.02808986e-04 2.91508242e-01 9.56568317e-01
    19     2.40543559e+03 2.07862560e-04 3.00376739e-01 9.53820641e-01
    20     2.32233153e+03 2.15300871e-04 3.13120943e-01 9.49713259e-01
    21     2.21686214e+03 2.25544021e-04 3.30076422e-01 9.43954213e-01
    22     2.09004316e+03 2.39229510e-04 3.51684231e-01 9.36118690e-01
    23     1.94309592e+03 2.57321317e-04 3.78496688e-01 9.25602646e-01
    24     1.77743560e+03 2.81304144e-04 4.11182633e-01 9.11552984e-01
    25     1.59465761e+03 3.13546932e-04 4.50530815e-01 8.92760878e-01
    26     1.39652219e+03 3.58032263e-04 4.97449570e-01 8.67492896e-01
    27     1.18493750e+03 4.21963184e-04 5.52960477e-01 8.33207484e-01
    28     9.61941214e+02 5.19782282e-04 6.18183088e-01 7.86034141e-01
    29     7.29680909e+02 6.85231028e-04 6.94307415e-01 7.19678548e-01
    30     4.90393378e+02 1.01958962e-03 7.82550604e-01 6.22586984e-01
    31     2.46383091e+02 2.02936004e-03 8.84094302e-01 4.67308533e-01
PILE_L thermostat successfully initialized!

Total wall time: 0:05:52
