LAMMPS (2 Aug 2023)
Processor partition = 9
OMP_NUM_THREADS environment is not set. Defaulting to 1 thread. (src/comm.cpp:98)
  using 1 OpenMP thread(s) per MPI task
Loaded 1 plugins from /opt/deepmd-kit/lib/deepmd_lmp
clear
OMP_NUM_THREADS environment is not set. Defaulting to 1 thread. (src/comm.cpp:98)
  using 1 OpenMP thread(s) per MPI task
Loaded 1 plugins from /opt/deepmd-kit/lib/deepmd_lmp
# --------------------- VARIABLES-------------------------
variable        ibead           uloop 99 pad
variable        NSTEPS          equal 1000
variable        THERMO_FREQ     equal 1
#variable        DUMP_FREQ       equal 4000
#variable        NREPEAT         equal ${NSTEPS}/${DUMP_FREQ}
variable        TEMP            equal 300.000000
variable        TAU_T           equal 1.000000
# ---------------------- INITIALIZAITION ------------------
units           metal
boundary        p p p
atom_style      atomic
atom_modify     map yes
# --------------------- ATOM DEFINITION ------------------
read_data       /pscratch/sd/y/yifanl/Work/h2o/pimd/initial_config/conf01
Reading data file ...
  orthogonal box = (0 0 0) to (24.76926 24.76926 24.76926)
  1 by 1 by 1 MPI processor grid
  reading atoms ...
  1536 atoms
  read_data CPU = 0.005 seconds
mass            1 16.000000
mass            2 1.000000
replicate       3 3 3
Replication is creating a 3x3x3 = 27 times larger system...
  orthogonal box = (0 0 0) to (74.30778 74.30778 74.30778)
  1 by 1 by 1 MPI processor grid
  41472 atoms
  replicate CPU = 0.003 seconds
# --------------------- FORCE FIELDS ---------------------
pair_style      deepmd /pscratch/sd/y/yifanl/Work/h2o/pimd/benchmark/graph.pb
Summary of lammps deepmd module ...
  >>> Info of deepmd-kit:
  installed to:       /opt/deepmd-kit
  source:             
  source branch:      HEAD
  source commit:      5ec5eae
  source commit at:   2024-02-04 18:53:26 -0500
  support model ver.: 1.1 
  build variant:      cuda
  build with tf inc:  /opt/deepmd-kit/lib/python3.11/site-packages/tensorflow/include;/opt/deepmd-kit/include
  build with tf lib:  /opt/deepmd-kit/lib/python3.11/site-packages/tensorflow/libtensorflow_cc.so.2
  set tf intra_op_parallelism_threads: 0
  set tf inter_op_parallelism_threads: 0
  >>> Info of lammps module:
  use deepmd-kit at:  /opt/deepmd-kitpair_coeff * *
# --------------------- MD SETTINGS ----------------------
neighbor        2.0 bin
neigh_modify    every 10 delay 0 check no
timestep        0.000500
thermo          ${THERMO_FREQ}
thermo          1
thermo_style    custom step pe
#dump            1 all custom ${DUMP_FREQ} ${ibead}.xyz id type x y z
#dump_modify     1 sort id
fix 1 all pimd/langevin ensemble nvt integrator obabo temp ${TEMP} thermostat PILE_L 1234 tau ${TAU_T}
fix 1 all pimd/langevin ensemble nvt integrator obabo temp 300 thermostat PILE_L 1234 tau ${TAU_T}
fix 1 all pimd/langevin ensemble nvt integrator obabo temp 300 thermostat PILE_L 1234 tau 1
# --------------------- RUN ------------------------------
run             ${NSTEPS}
run             1000

CITE-CITE-CITE-CITE-CITE-CITE-CITE-CITE-CITE-CITE-CITE-CITE-CITE

Your simulation uses code contributions which should be cited:

- USER-DEEPMD package:

@article{Wang_ComputPhysCommun_2018_v228_p178,
  author = {Wang, Han and Zhang, Linfeng and Han, Jiequn and E, Weinan},
  doi = {10.1016/j.cpc.2018.03.016},
  url = {https://doi.org/10.1016/j.cpc.2018.03.016},
  year = 2018,
  month = {jul},
  publisher = {Elsevier {BV}},
  volume = 228,
  journal = {Comput. Phys. Commun.},
  title = {{DeePMD-kit: A deep learning package for many-body potential energy representation and molecular dynamics}},
  pages = {178--184}
}
@misc{Zeng_JChemPhys_2023_v159_p054801,
  title  = {{DeePMD-kit v2: A software package for deep potential models}},
  author =   {Jinzhe Zeng and Duo Zhang and Denghui Lu and Pinghui Mo and Zeyu Li
         and Yixiao Chen and Mari{\'a}n Rynik and Li'ang Huang and Ziyao Li and 
         Shaochen Shi and Yingze Wang and Haotian Ye and Ping Tuo and Jiabin
         Yang and Ye Ding and Yifan Li and Davide Tisi and Qiyu Zeng and Han 
         Bao and Yu Xia and Jiameng Huang and Koki Muraoka and Yibo Wang and 
         Junhan Chang and Fengbo Yuan and Sigbj{\o}rn L{\o}land Bore and Chun
         Cai and Yinnian Lin and Bo Wang and Jiayan Xu and Jia-Xin Zhu and 
         Chenxing Luo and Yuzhi Zhang and Rhys E A Goodall and Wenshuo Liang
         and Anurag Kumar Singh and Sikai Yao and Jingchao Zhang and Renata
         Wentzcovitch and Jiequn Han and Jie Liu and Weile Jia and Darrin M
         York and Weinan E and Roberto Car and Linfeng Zhang and Han Wang},
  journal =  {J. Chem. Phys.},
  volume =   159,
  issue =    5,  
  year =    2023,
  pages  =   054801,
  doi =      {10.1063/5.0155600},
}

CITE-CITE-CITE-CITE-CITE-CITE-CITE-CITE-CITE-CITE-CITE-CITE-CITE

Generated 0 of 1 mixed pair_coeff terms from geometric mixing rule

Initializing PI Langevin equation thermostat...
Bead ID    |    omega    |    tau    |    c1    |    c2
    0     0.00000000e+00 1.00000000e+00 9.99750031e-01 2.23578850e-02
    1     2.46383091e+02 2.02936004e-03 8.84094302e-01 4.67308533e-01
    2     4.90393378e+02 1.01958962e-03 7.82550604e-01 6.22586984e-01
    3     7.29680909e+02 6.85231028e-04 6.94307415e-01 7.19678548e-01
    4     9.61941214e+02 5.19782282e-04 6.18183088e-01 7.86034141e-01
    5     1.18493750e+03 4.21963184e-04 5.52960477e-01 8.33207484e-01
    6     1.39652219e+03 3.58032263e-04 4.97449570e-01 8.67492896e-01
    7     1.59465761e+03 3.13546932e-04 4.50530815e-01 8.92760878e-01
    8     1.77743560e+03 2.81304144e-04 4.11182633e-01 9.11552984e-01
    9     1.94309592e+03 2.57321317e-04 3.78496688e-01 9.25602646e-01
    10     2.09004316e+03 2.39229510e-04 3.51684231e-01 9.36118690e-01
    11     2.21686214e+03 2.25544021e-04 3.30076422e-01 9.43954213e-01
    12     2.32233153e+03 2.15300871e-04 3.13120943e-01 9.49713259e-01
    13     2.40543559e+03 2.07862560e-04 3.00376739e-01 9.53820641e-01
    14     2.46537400e+03 2.02808986e-04 2.91508242e-01 9.56568317e-01
    15     2.50156951e+03 1.99874518e-04 2.86280050e-01 9.58145987e-01
    16     2.51367353e+03 1.98912068e-04 2.84552711e-01 9.58660396e-01
    17     2.50156951e+03 1.99874518e-04 2.86280050e-01 9.58145987e-01
    18     2.46537400e+03 2.02808986e-04 2.91508242e-01 9.56568317e-01
    19     2.40543559e+03 2.07862560e-04 3.00376739e-01 9.53820641e-01
    20     2.32233153e+03 2.15300871e-04 3.13120943e-01 9.49713259e-01
    21     2.21686214e+03 2.25544021e-04 3.30076422e-01 9.43954213e-01
    22     2.09004316e+03 2.39229510e-04 3.51684231e-01 9.36118690e-01
    23     1.94309592e+03 2.57321317e-04 3.78496688e-01 9.25602646e-01
    24     1.77743560e+03 2.81304144e-04 4.11182633e-01 9.11552984e-01
    25     1.59465761e+03 3.13546932e-04 4.50530815e-01 8.92760878e-01
    26     1.39652219e+03 3.58032263e-04 4.97449570e-01 8.67492896e-01
    27     1.18493750e+03 4.21963184e-04 5.52960477e-01 8.33207484e-01
    28     9.61941214e+02 5.19782282e-04 6.18183088e-01 7.86034141e-01
    29     7.29680909e+02 6.85231028e-04 6.94307415e-01 7.19678548e-01
    30     4.90393378e+02 1.01958962e-03 7.82550604e-01 6.22586984e-01
    31     2.46383091e+02 2.02936004e-03 8.84094302e-01 4.67308533e-01
PILE_L thermostat successfully initialized!

Neighbor list info ...
  update: every = 10 steps, delay = 0 steps, check = no
  max neighbors/atom: 2000, page size: 100000
  master list distance cutoff = 8
  ghost atom cutoff = 8
  binsize = 4, bins = 19 19 19
  1 neighbor lists, perpetual/occasional/extra = 1 0 0
  (1) pair deepmd, perpetual
      attributes: full, newton on
      pair build: full/bin/atomonly
      stencil: full/bin/3d
      bin: standard
Per MPI rank memory allocation (min/avg/max) = 47.09 | 47.09 | 47.09 Mbytes
   Step         PotEng    
         0  -6460847.9    
         1  -6460131.3    
         2  -6459562.1    
         3  -6459126.6    
         4  -6458809.8    
         5  -6458582.2    
         6  -6458349.7    
         7  -6458193.5    
         8  -6458029.4    
         9  -6457966.8    
        10  -6457992.7    
        11  -6457998.5    
        12  -6458019      
        13  -6458060.1    
        14  -6458058      
        15  -6458044.4    
        16  -6457983.3    
        17  -6457942.2    
        18  -6457900.2    
        19  -6457903      
        20  -6457920.9    
        21  -6457952.9    
        22  -6458011.7    
        23  -6458132      
        24  -6458225.6    
        25  -6458248.3    
        26  -6458212.9    
        27  -6458174.4    
        28  -6458161      
        29  -6458163.2    
        30  -6458170.9    
        31  -6458172.5    
        32  -6458158.8    
        33  -6458111.6    
        34  -6458060      
        35  -6458040.9    
        36  -6457990      
        37  -6457934.1    
        38  -6457908.9    
        39  -6457904.9    
        40  -6457894.8    
        41  -6457896.2    
        42  -6457954.4    
        43  -6457982.5    
        44  -6458016.3    
        45  -6457978.8    
        46  -6457979.8    
        47  -6457973.1    
        48  -6457951.9    
        49  -6457979.2    
        50  -6458001.4    
        51  -6458059.1    
        52  -6458041.7    
        53  -6458013.5    
        54  -6458010.4    
        55  -6457997.7    
        56  -6457973.6    
        57  -6457949.5    
        58  -6458003.4    
        59  -6457987.6    
        60  -6457970.5    
        61  -6458014      
        62  -6458001      
        63  -6458006.7    
        64  -6458022.1    
        65  -6458065.8    
        66  -6458077      
        67  -6458093.1    
        68  -6458097.8    
        69  -6458128.1    
        70  -6458112.8    
        71  -6458129.1    
        72  -6458115.8    
        73  -6458098.1    
        74  -6458074.6    
        75  -6458050      
        76  -6458008.9    
        77  -6457980.1    
        78  -6457976.7    
        79  -6457987.6    
        80  -6458023.5    
        81  -6458018.8    
        82  -6457978.6    
        83  -6457961      
        84  -6457936.2    
        85  -6457992.3    
        86  -6458023.1    
        87  -6458052.8    
        88  -6458066.5    
        89  -6458053.6    
        90  -6458048.8    
        91  -6458064.6    
        92  -6458082.7    
        93  -6458080.3    
        94  -6458064.5    
        95  -6458025.6    
        96  -6458023.7    
        97  -6458008      
        98  -6457996.7    
        99  -6457978.7    
       100  -6457991      
       101  -6458002.9    
       102  -6458004.7    
       103  -6457954      
       104  -6457977.6    
       105  -6457981.6    
       106  -6457961.1    
       107  -6457999.4    
       108  -6458021.8    
       109  -6458042.2    
       110  -6458040      
       111  -6458042.5    
       112  -6458079.7    
       113  -6458064.7    
       114  -6458032.6    
       115  -6457991.7    
       116  -6457983.5    
       117  -6457973.5    
       118  -6457989.1    
       119  -6457978.8    
       120  -6457953.7    
       121  -6457936.9    
       122  -6457921.9    
       123  -6457928.4    
       124  -6457961.7    
       125  -6457945.2    
       126  -6457969.6    
       127  -6458013.2    
       128  -6458036.9    
       129  -6458039.4    
       130  -6457990.6    
       131  -6457993.7    
       132  -6458004.4    
       133  -6458021.2    
       134  -6457980.6    
       135  -6457992.5    
       136  -6457967.4    
       137  -6457973.2    
       138  -6457939.4    
       139  -6457951.2    
       140  -6457934.9    
       141  -6457902.9    
       142  -6457858.3    
       143  -6457912.2    
       144  -6457905.1    
       145  -6457917.2    
       146  -6457973.3    
       147  -6458006      
       148  -6458031.2    
       149  -6457975      
       150  -6457985.8    
       151  -6458026.3    
       152  -6458034.9    
       153  -6458033.9    
       154  -6458035.1    
       155  -6458061.3    
       156  -6458026.5    
       157  -6458004.7    
       158  -6457979.5    
       159  -6457966.5    
       160  -6457965.6    
       161  -6457998.2    
       162  -6458002.2    
       163  -6457983      
       164  -6457953.6    
       165  -6457959.4    
       166  -6457946.9    
       167  -6458011.9    
       168  -6458014.4    
       169  -6458035.1    
       170  -6458010      
       171  -6457998.9    
       172  -6457981.1    
       173  -6458009.9    
       174  -6458039.4    
       175  -6458058.5    
       176  -6458042.8    
       177  -6457977.2    
       178  -6457977.5    
       179  -6457948      
       180  -6457960.2    
       181  -6457940.9    
       182  -6457978.3    
       183  -6457957.7    
       184  -6457938.7    
       185  -6457969      
       186  -6457940.4    
       187  -6457947.3    
       188  -6457971.5    
       189  -6457980.6    
       190  -6458014      
       191  -6458053.7    
       192  -6457988.9    
       193  -6458025.1    
       194  -6458000.1    
       195  -6458006.1    
       196  -6457985      
       197  -6457986.9    
       198  -6457972.2    
       199  -6457981      
       200  -6457953.5    
       201  -6457936.5    
       202  -6457924.9    
       203  -6457948.2    
       204  -6457956      
       205  -6457943.1    
       206  -6457915.3    
       207  -6457895      
       208  -6457933.2    
       209  -6457955.7    
       210  -6457958      
       211  -6457928.1    
       212  -6457912.2    
       213  -6457881.7    
       214  -6457877.4    
       215  -6457869.7    
       216  -6457909      
       217  -6457914.5    
       218  -6457933.9    
       219  -6457938      
       220  -6457933.6    
       221  -6457951.8    
       222  -6457929.4    
       223  -6457921.5    
       224  -6457949.5    
       225  -6457942.3    
       226  -6457928.5    
       227  -6457937.9    
       228  -6457918.6    
       229  -6457942.7    
       230  -6457968.5    
       231  -6457972.1    
       232  -6457946.1    
       233  -6457922.1    
       234  -6457925.6    
       235  -6457946.2    
       236  -6457956.8    
       237  -6457946      
       238  -6457925      
       239  -6457924.2    
       240  -6457935.5    
       241  -6457922.1    
       242  -6457922.3    
       243  -6457902.1    
       244  -6457909.7    
       245  -6457959.1    
       246  -6457958.4    
       247  -6457929.4    
       248  -6457934.3    
       249  -6457925.7    
       250  -6457902.4    
       251  -6457874.7    
       252  -6457916.9    
       253  -6457920.7    
       254  -6457950.4    
       255  -6457958.8    
       256  -6457944.2    
       257  -6457945.3    
       258  -6457949.9    
       259  -6457944.6    
       260  -6457927.8    
       261  -6457906.6    
       262  -6457916.9    
       263  -6457951.6    
       264  -6457943.6    
       265  -6457925.6    
       266  -6457934.9    
       267  -6457931.5    
       268  -6457926.3    
       269  -6457889      
       270  -6457860.4    
       271  -6457869.9    
       272  -6457893.7    
       273  -6457878.6    
       274  -6457872      
       275  -6457916.4    
       276  -6457919.8    
       277  -6457932.3    
       278  -6457945.1    
       279  -6457955.4    
       280  -6457912.7    
       281  -6457908.6    
       282  -6457913.1    
       283  -6457908.3    
       284  -6457940.6    
       285  -6457909.8    
       286  -6457931      
       287  -6457920.8    
       288  -6457900.1    
       289  -6457909.4    
       290  -6457904.6    
       291  -6457949      
       292  -6457952      
       293  -6457912.9    
       294  -6457913.2    
       295  -6457928.1    
       296  -6457901      
       297  -6457904.2    
       298  -6457910.3    
       299  -6457926.2    
       300  -6457945.6    
       301  -6457935      
       302  -6457940.2    
       303  -6457922.3    
       304  -6457914.3    
       305  -6457906      
       306  -6457904.8    
       307  -6457941.8    
       308  -6457900.8    
       309  -6457925      
       310  -6457916.2    
       311  -6457897.4    
       312  -6457853.6    
       313  -6457856.8    
       314  -6457881.8    
       315  -6457869.1    
       316  -6457857.3    
       317  -6457870.7    
       318  -6457897.6    
       319  -6457914.6    
       320  -6457930.2    
       321  -6457910.8    
       322  -6457884.4    
       323  -6457902.9    
       324  -6457913.2    
       325  -6457885.3    
       326  -6457912.5    
       327  -6457900.6    
       328  -6457911.7    
       329  -6457935.4    
       330  -6457939.5    
       331  -6457903      
       332  -6457908.9    
       333  -6457911.6    
       334  -6457899.1    
       335  -6457926.3    
       336  -6457921.7    
       337  -6457897.9    
       338  -6457881.5    
       339  -6457847.8    
       340  -6457850.5    
       341  -6457905.8    
       342  -6457907.4    
       343  -6457916.6    
       344  -6457911      
       345  -6457889.7    
       346  -6457912.6    
       347  -6457895.4    
       348  -6457904.4    
       349  -6457888.7    
       350  -6457907.6    
       351  -6457888.1    
       352  -6457853.2    
       353  -6457864.5    
       354  -6457892      
       355  -6457923      
       356  -6457914.7    
       357  -6457883.7    
       358  -6457850.6    
       359  -6457864.3    
       360  -6457896.6    
       361  -6457918.4    
       362  -6457891.5    
       363  -6457897.5    
       364  -6457914.3    
       365  -6457935.8    
       366  -6457904.8    
       367  -6457888.6    
       368  -6457879.5    
       369  -6457895.1    
       370  -6457883.1    
       371  -6457897.6    
       372  -6457888.5    
       373  -6457851.9    
       374  -6457876.9    
       375  -6457879.3    
       376  -6457892.8    
       377  -6457883.5    
       378  -6457886.5    
       379  -6457870.8    
       380  -6457881.5    
       381  -6457874.3    
       382  -6457880      
       383  -6457824.7    
       384  -6457827.8    
       385  -6457827.3    
       386  -6457846      
       387  -6457833.1    
       388  -6457844.5    
       389  -6457841.1    
       390  -6457852.2    
       391  -6457849      
       392  -6457841.2    
       393  -6457861.8    
       394  -6457856.2    
       395  -6457866.8    
       396  -6457890.2    
       397  -6457878.6    
       398  -6457854.9    
       399  -6457893.9    
       400  -6457895.9    
       401  -6457894.1    
       402  -6457891      
       403  -6457926.4    
       404  -6457929.2    
       405  -6457930      
       406  -6457891.3    
       407  -6457918.8    
       408  -6457902.6    
       409  -6457894.2    
       410  -6457895.6    
       411  -6457914.3    
       412  -6457916.9    
       413  -6457891.2    
       414  -6457883      
       415  -6457884.5    
       416  -6457897.8    
       417  -6457877.7    
       418  -6457844.3    
       419  -6457826.8    
       420  -6457820.6    
       421  -6457856.2    
       422  -6457883.6    
       423  -6457900.4    
       424  -6457874.3    
       425  -6457837.8    
       426  -6457843.8    
       427  -6457851.2    
       428  -6457832.6    
       429  -6457832.8    
       430  -6457863.4    
       431  -6457881.1    
       432  -6457906      
       433  -6457896.6    
       434  -6457884.5    
       435  -6457860.5    
       436  -6457851.2    
       437  -6457847.2    
       438  -6457855.6    
       439  -6457860.9    
       440  -6457871.5    
       441  -6457854.3    
       442  -6457837.5    
       443  -6457849.6    
       444  -6457873.6    
       445  -6457878.9    
       446  -6457862.7    
       447  -6457882.2    
       448  -6457914.4    
       449  -6457898.6    
       450  -6457908.1    
       451  -6457890.9    
       452  -6457904.2    
       453  -6457908.1    
       454  -6457908.6    
       455  -6457869.1    
       456  -6457856.1    
       457  -6457849.5    
       458  -6457823.5    
       459  -6457831.5    
       460  -6457828.9    
       461  -6457814.1    
       462  -6457826.7    
       463  -6457847      
       464  -6457849.8    
       465  -6457878.3    
       466  -6457880.5    
       467  -6457847.9    
       468  -6457888.6    
       469  -6457861.3    
       470  -6457875.1    
       471  -6457860.6    
       472  -6457861      
       473  -6457853.8    
       474  -6457811.1    
       475  -6457779.9    
       476  -6457828.1    
       477  -6457818.3    
       478  -6457825.2    
       479  -6457815.1    
       480  -6457852.7    
       481  -6457868.9    
       482  -6457898.6    
       483  -6457904.6    
       484  -6457885.5    
       485  -6457872.5    
       486  -6457844      
       487  -6457889.9    
       488  -6457895.7    
       489  -6457898.5    
       490  -6457865.9    
       491  -6457877.6    
       492  -6457853      
       493  -6457893.7    
       494  -6457907.8    
       495  -6457886.6    
       496  -6457870.1    
       497  -6457867.1    
       498  -6457859.1    
       499  -6457853.2    
       500  -6457832.8    
       501  -6457848.1    
       502  -6457834      
       503  -6457836      
       504  -6457845      
       505  -6457804.7    
       506  -6457811.1    
       507  -6457833.9    
       508  -6457837.2    
       509  -6457839.6    
       510  -6457858.2    
       511  -6457883.9    
       512  -6457863.6    
       513  -6457856.9    
       514  -6457861.2    
       515  -6457833.5    
       516  -6457876.8    
       517  -6457860.3    
       518  -6457859.3    
       519  -6457834.7    
       520  -6457838.8    
       521  -6457867.2    
       522  -6457885.9    
       523  -6457856.6    
       524  -6457837.4    
       525  -6457838.6    
       526  -6457855.5    
       527  -6457824.7    
       528  -6457826.1    
       529  -6457831.6    
       530  -6457832.9    
       531  -6457867.6    
       532  -6457883.1    
       533  -6457906.5    
       534  -6457915.9    
       535  -6457903.6    
       536  -6457916.1    
       537  -6457868.4    
       538  -6457857.2    
       539  -6457853.4    
       540  -6457843.6    
       541  -6457865.1    
       542  -6457844.8    
       543  -6457873.7    
       544  -6457886.4    
       545  -6457857.7    
       546  -6457849.3    
       547  -6457867      
       548  -6457862.2    
       549  -6457887.3    
       550  -6457865      
       551  -6457856.9    
       552  -6457870.4    
       553  -6457890.2    
       554  -6457859.3    
       555  -6457892.6    
       556  -6457882.4    
       557  -6457879.6    
       558  -6457884.3    
       559  -6457899      
       560  -6457891.9    
       561  -6457914.1    
       562  -6457869.8    
       563  -6457882.4    
       564  -6457894.1    
       565  -6457901.4    
       566  -6457909.1    
       567  -6457878.1    
       568  -6457890.4    
       569  -6457885.5    
       570  -6457869.3    
       571  -6457869.1    
       572  -6457844.3    
       573  -6457866.9    
       574  -6457868.7    
       575  -6457876.5    
       576  -6457859.2    
       577  -6457856.2    
       578  -6457877.8    
       579  -6457874.8    
       580  -6457891.3    
       581  -6457884.6    
       582  -6457852.1    
       583  -6457880.5    
       584  -6457862.6    
       585  -6457878.2    
       586  -6457874.3    
       587  -6457858.6    
       588  -6457825.8    
       589  -6457813.4    
       590  -6457807.6    
       591  -6457801.2    
       592  -6457788.3    
       593  -6457799.8    
       594  -6457798.8    
       595  -6457797.8    
       596  -6457809.5    
       597  -6457818.3    
       598  -6457828.4    
       599  -6457826.1    
       600  -6457835.4    
       601  -6457812.3    
       602  -6457819.1    
       603  -6457811.7    
       604  -6457812.5    
       605  -6457879      
       606  -6457861.1    
       607  -6457833.5    
       608  -6457847.2    
       609  -6457842.2    
       610  -6457821.2    
       611  -6457840.4    
       612  -6457825.7    
       613  -6457799.8    
       614  -6457808.5    
       615  -6457793.2    
       616  -6457791.6    
       617  -6457801.9    
       618  -6457789.1    
       619  -6457813.9    
       620  -6457822.8    
       621  -6457851.3    
       622  -6457797.3    
       623  -6457821.1    
       624  -6457798.8    
       625  -6457831.8    
       626  -6457834      
       627  -6457838.9    
       628  -6457835.4    
       629  -6457827.8    
       630  -6457848.4    
       631  -6457854      
       632  -6457834.5    
       633  -6457806.3    
       634  -6457830.7    
       635  -6457817.6    
       636  -6457793      
       637  -6457797.5    
       638  -6457804.7    
       639  -6457807.9    
       640  -6457761.5    
       641  -6457785.9    
       642  -6457817      
       643  -6457834.6    
       644  -6457849      
       645  -6457834      
       646  -6457823.7    
       647  -6457823.1    
       648  -6457819.8    
       649  -6457803.4    
       650  -6457760.2    
       651  -6457777.7    
       652  -6457808.6    
       653  -6457841.1    
       654  -6457817.6    
       655  -6457819.2    
       656  -6457782      
       657  -6457790      
       658  -6457830.8    
       659  -6457806.4    
       660  -6457791.2    
       661  -6457759.6    
       662  -6457751.2    
       663  -6457753.7    
       664  -6457761.6    
       665  -6457793.3    
       666  -6457811.4    
       667  -6457796.8    
       668  -6457782.6    
       669  -6457810.2    
       670  -6457778.7    
       671  -6457814.5    
       672  -6457809.4    
       673  -6457789      
       674  -6457799.4    
       675  -6457827.8    
       676  -6457856.7    
       677  -6457842.4    
       678  -6457783.4    
       679  -6457815.6    
       680  -6457821.4    
       681  -6457814.4    
       682  -6457783.1    
       683  -6457773.1    
       684  -6457790.9    
       685  -6457815      
       686  -6457789.7    
       687  -6457784.8    
       688  -6457766.3    
       689  -6457766.1    
       690  -6457778.5    
       691  -6457773.2    
       692  -6457789.9    
       693  -6457786.1    
       694  -6457802.9    
       695  -6457841      
       696  -6457830.5    
       697  -6457823.5    
       698  -6457801.1    
       699  -6457788.9    
       700  -6457796.7    
       701  -6457754.9    
       702  -6457777.1    
       703  -6457785.5    
       704  -6457818.7    
       705  -6457814.2    
       706  -6457812      
       707  -6457813.4    
       708  -6457821.6    
       709  -6457843.5    
       710  -6457824.8    
       711  -6457817.3    
       712  -6457822      
       713  -6457779.4    
       714  -6457748.9    
       715  -6457751.2    
       716  -6457761.7    
       717  -6457807.4    
       718  -6457782.5    
       719  -6457802.9    
       720  -6457823.8    
       721  -6457790.1    
       722  -6457802.8    
       723  -6457820.8    
       724  -6457829.1    
       725  -6457803.3    
       726  -6457782.2    
       727  -6457793.2    
       728  -6457797.7    
       729  -6457794.9    
       730  -6457826.8    
       731  -6457834.9    
       732  -6457811.4    
       733  -6457793      
       734  -6457798.3    
       735  -6457815.4    
       736  -6457813.8    
       737  -6457837.8    
       738  -6457819.7    
       739  -6457795.7    
       740  -6457794.5    
       741  -6457806.3    
       742  -6457817.7    
       743  -6457804.7    
       744  -6457801.3    
       745  -6457834.5    
       746  -6457832.7    
       747  -6457783.5    
       748  -6457804.9    
       749  -6457796.4    
       750  -6457807.6    
       751  -6457818.3    
       752  -6457839.9    
       753  -6457826.1    
       754  -6457803.6    
       755  -6457774      
       756  -6457776.7    
       757  -6457763.6    
       758  -6457813.6    
       759  -6457827.4    
       760  -6457783.5    
       761  -6457733.4    
       762  -6457727.9    
       763  -6457756.6    
       764  -6457770.7    
       765  -6457796.1    
       766  -6457826      
       767  -6457797.4    
       768  -6457794.7    
       769  -6457754.3    
       770  -6457748.2    
       771  -6457759.1    
       772  -6457766.3    
       773  -6457761.1    
       774  -6457784.7    
       775  -6457781.6    
       776  -6457788.2    
       777  -6457798.3    
       778  -6457832.9    
       779  -6457832.5    
       780  -6457826.2    
       781  -6457814      
       782  -6457833      
       783  -6457818.5    
       784  -6457776.4    
       785  -6457774.9    
       786  -6457747.4    
       787  -6457777.6    
       788  -6457782      
       789  -6457812.9    
       790  -6457799.9    
       791  -6457799.7    
       792  -6457842.7    
       793  -6457841.9    
       794  -6457783      
       795  -6457789.3    
       796  -6457757.2    
       797  -6457758.6    
       798  -6457745      
       799  -6457769.9    
       800  -6457709.3    
       801  -6457752.9    
       802  -6457730.1    
       803  -6457742.9    
       804  -6457782.2    
       805  -6457814.6    
       806  -6457760.7    
       807  -6457774.7    
       808  -6457748.1    
       809  -6457774.3    
       810  -6457794.5    
       811  -6457800.7    
       812  -6457789.7    
       813  -6457762.4    
       814  -6457761.5    
       815  -6457731.2    
       816  -6457747.6    
       817  -6457782.1    
       818  -6457832.6    
       819  -6457852      
       820  -6457847.7    
       821  -6457840.2    
       822  -6457831.8    
       823  -6457820.9    
       824  -6457763.6    
       825  -6457760.1    
       826  -6457785.8    
       827  -6457774.4    
       828  -6457787.9    
       829  -6457853.9    
       830  -6457855.4    
       831  -6457867.9    
       832  -6457817.5    
       833  -6457795.8    
       834  -6457757.5    
       835  -6457746.6    
       836  -6457760.2    
       837  -6457801.2    
       838  -6457769.9    
       839  -6457747.5    
       840  -6457758.4    
       841  -6457789.9    
       842  -6457809      
       843  -6457790.6    
       844  -6457776.1    
       845  -6457798.8    
       846  -6457794.9    
       847  -6457799      
       848  -6457817.3    
       849  -6457798.5    
       850  -6457809.2    
       851  -6457806.8    
       852  -6457801.4    
       853  -6457794.5    
       854  -6457774      
       855  -6457742.4    
       856  -6457767.1    
       857  -6457771.4    
       858  -6457761.3    
       859  -6457756.9    
       860  -6457774.1    
       861  -6457800      
       862  -6457771      
       863  -6457756.9    
       864  -6457736.9    
       865  -6457713.9    
       866  -6457742.8    
       867  -6457761.4    
       868  -6457793.4    
       869  -6457774.3    
       870  -6457779.8    
       871  -6457799.9    
       872  -6457816.6    
       873  -6457791.6    
       874  -6457785.1    
       875  -6457790.9    
       876  -6457770.2    
       877  -6457790.7    
       878  -6457814.6    
       879  -6457774      
       880  -6457780.7    
       881  -6457791.6    
       882  -6457776.7    
       883  -6457823.8    
       884  -6457782.6    
       885  -6457777.2    
       886  -6457754.3    
       887  -6457797.3    
       888  -6457823.3    
       889  -6457802.5    
       890  -6457774.8    
       891  -6457790.3    
       892  -6457741.2    
       893  -6457740.9    
       894  -6457768.3    
       895  -6457770.9    
       896  -6457789.1    
       897  -6457794.5    
       898  -6457802.1    
       899  -6457793.8    
       900  -6457839.3    
       901  -6457834.8    
       902  -6457804      
       903  -6457780.9    
       904  -6457803.8    
       905  -6457792.2    
       906  -6457823.6    
       907  -6457798.1    
       908  -6457771.6    
       909  -6457752      
       910  -6457748      
       911  -6457774.2    
       912  -6457781.4    
       913  -6457818.7    
       914  -6457820.1    
       915  -6457802.5    
       916  -6457770      
       917  -6457771.3    
       918  -6457760.1    
       919  -6457736.4    
       920  -6457729.1    
       921  -6457718.4    
       922  -6457740.8    
       923  -6457780      
       924  -6457756.3    
       925  -6457745.6    
       926  -6457748.9    
       927  -6457721      
       928  -6457759.1    
       929  -6457763.2    
       930  -6457788.8    
       931  -6457808.9    
       932  -6457825.7    
       933  -6457841.1    
       934  -6457807.7    
       935  -6457751.3    
       936  -6457763.1    
       937  -6457751.3    
       938  -6457750.5    
       939  -6457768.4    
       940  -6457783.4    
       941  -6457805.2    
       942  -6457781.6    
       943  -6457777      
       944  -6457770.6    
       945  -6457763.5    
       946  -6457788      
       947  -6457808.4    
       948  -6457802.5    
       949  -6457751.6    
       950  -6457742.6    
       951  -6457789.7    
       952  -6457787.7    
       953  -6457772.1    
       954  -6457764      
       955  -6457807.6    
       956  -6457804.6    
       957  -6457800.3    
       958  -6457808.4    
       959  -6457805.9    
       960  -6457788.5    
       961  -6457803      
       962  -6457749.9    
       963  -6457745.1    
       964  -6457744      
       965  -6457785.2    
       966  -6457798.5    
       967  -6457799.9    
       968  -6457812.5    
       969  -6457769.7    
       970  -6457752.3    
       971  -6457798.4    
       972  -6457836.4    
       973  -6457831.2    
       974  -6457860.5    
       975  -6457796.1    
       976  -6457769.3    
       977  -6457755.8    
       978  -6457775.1    
       979  -6457812.2    
       980  -6457800.8    
       981  -6457798.6    
       982  -6457795.4    
       983  -6457794.9    
       984  -6457772.1    
       985  -6457798.2    
       986  -6457804.8    
       987  -6457807      
       988  -6457831.6    
       989  -6457792.8    
       990  -6457773.1    
       991  -6457796.1    
       992  -6457800.8    
       993  -6457801.6    
       994  -6457783.9    
       995  -6457760.5    
       996  -6457787      
       997  -6457793.7    
       998  -6457775.6    
       999  -6457748.5    
      1000  -6457774      
Loop time of 327.708 on 1 procs for 1000 steps with 41472 atoms

Performance: 0.132 ns/day, 182.060 hours/ns, 3.052 timesteps/s, 126.552 katom-step/s
80.5% CPU use with 1 MPI tasks x 1 OpenMP threads

MPI task timing breakdown:
Section |  min time  |  avg time  |  max time  |%varavg| %total
---------------------------------------------------------------
Pair    | 51.514     | 51.514     | 51.514     |   0.0 | 15.72
Neigh   | 19.244     | 19.244     | 19.244     |   0.0 |  5.87
Comm    | 0.24177    | 0.24177    | 0.24177    |   0.0 |  0.07
Output  | 0.019353   | 0.019353   | 0.019353   |   0.0 |  0.01
Modify  | 256.52     | 256.52     | 256.52     |   0.0 | 78.28
Other   |            | 0.1656     |            |       |  0.05

Nlocal:          41472 ave       41472 max       41472 min
Histogram: 1 0 0 0 0 0 0 0 0 0
Nghost:          32215 ave       32215 max       32215 min
Histogram: 1 0 0 0 0 0 0 0 0 0
Neighs:              0 ave           0 max           0 min
Histogram: 1 0 0 0 0 0 0 0 0 0
FullNghs:  8.96221e+06 ave 8.96221e+06 max 8.96221e+06 min
Histogram: 1 0 0 0 0 0 0 0 0 0

Total # of neighbors = 8962212
Ave neighs/atom = 216.10272
Neighbor list builds = 100
Dangerous builds not checked
write_data      final.${ibead}
write_data      final.10
System init for write_data ...
Generated 0 of 1 mixed pair_coeff terms from geometric mixing rule

Initializing PI Langevin equation thermostat...
Bead ID    |    omega    |    tau    |    c1    |    c2
    0     0.00000000e+00 1.00000000e+00 9.99750031e-01 2.23578850e-02
    1     2.46383091e+02 2.02936004e-03 8.84094302e-01 4.67308533e-01
    2     4.90393378e+02 1.01958962e-03 7.82550604e-01 6.22586984e-01
    3     7.29680909e+02 6.85231028e-04 6.94307415e-01 7.19678548e-01
    4     9.61941214e+02 5.19782282e-04 6.18183088e-01 7.86034141e-01
    5     1.18493750e+03 4.21963184e-04 5.52960477e-01 8.33207484e-01
    6     1.39652219e+03 3.58032263e-04 4.97449570e-01 8.67492896e-01
    7     1.59465761e+03 3.13546932e-04 4.50530815e-01 8.92760878e-01
    8     1.77743560e+03 2.81304144e-04 4.11182633e-01 9.11552984e-01
    9     1.94309592e+03 2.57321317e-04 3.78496688e-01 9.25602646e-01
    10     2.09004316e+03 2.39229510e-04 3.51684231e-01 9.36118690e-01
    11     2.21686214e+03 2.25544021e-04 3.30076422e-01 9.43954213e-01
    12     2.32233153e+03 2.15300871e-04 3.13120943e-01 9.49713259e-01
    13     2.40543559e+03 2.07862560e-04 3.00376739e-01 9.53820641e-01
    14     2.46537400e+03 2.02808986e-04 2.91508242e-01 9.56568317e-01
    15     2.50156951e+03 1.99874518e-04 2.86280050e-01 9.58145987e-01
    16     2.51367353e+03 1.98912068e-04 2.84552711e-01 9.58660396e-01
    17     2.50156951e+03 1.99874518e-04 2.86280050e-01 9.58145987e-01
    18     2.46537400e+03 2.02808986e-04 2.91508242e-01 9.56568317e-01
    19     2.40543559e+03 2.07862560e-04 3.00376739e-01 9.53820641e-01
    20     2.32233153e+03 2.15300871e-04 3.13120943e-01 9.49713259e-01
    21     2.21686214e+03 2.25544021e-04 3.30076422e-01 9.43954213e-01
    22     2.09004316e+03 2.39229510e-04 3.51684231e-01 9.36118690e-01
    23     1.94309592e+03 2.57321317e-04 3.78496688e-01 9.25602646e-01
    24     1.77743560e+03 2.81304144e-04 4.11182633e-01 9.11552984e-01
    25     1.59465761e+03 3.13546932e-04 4.50530815e-01 8.92760878e-01
    26     1.39652219e+03 3.58032263e-04 4.97449570e-01 8.67492896e-01
    27     1.18493750e+03 4.21963184e-04 5.52960477e-01 8.33207484e-01
    28     9.61941214e+02 5.19782282e-04 6.18183088e-01 7.86034141e-01
    29     7.29680909e+02 6.85231028e-04 6.94307415e-01 7.19678548e-01
    30     4.90393378e+02 1.01958962e-03 7.82550604e-01 6.22586984e-01
    31     2.46383091e+02 2.02936004e-03 8.84094302e-01 4.67308533e-01
PILE_L thermostat successfully initialized!

Total wall time: 0:05:52
