LAMMPS (2 Aug 2023)
Processor partition = 6
OMP_NUM_THREADS environment is not set. Defaulting to 1 thread. (src/comm.cpp:98)
  using 1 OpenMP thread(s) per MPI task
Loaded 1 plugins from /opt/deepmd-kit/lib/deepmd_lmp
clear
OMP_NUM_THREADS environment is not set. Defaulting to 1 thread. (src/comm.cpp:98)
  using 1 OpenMP thread(s) per MPI task
Loaded 1 plugins from /opt/deepmd-kit/lib/deepmd_lmp
# --------------------- VARIABLES-------------------------
variable        ibead           uloop 99 pad
variable        NSTEPS          equal 1000
variable        THERMO_FREQ     equal 1
#variable        DUMP_FREQ       equal 4000
#variable        NREPEAT         equal ${NSTEPS}/${DUMP_FREQ}
variable        TEMP            equal 300.000000
variable        TAU_T           equal 1.000000
# ---------------------- INITIALIZAITION ------------------
units           metal
boundary        p p p
atom_style      atomic
atom_modify     map yes
# --------------------- ATOM DEFINITION ------------------
read_data       /pscratch/sd/y/yifanl/Work/h2o/pimd/initial_config/conf01
Reading data file ...
  orthogonal box = (0 0 0) to (24.76926 24.76926 24.76926)
  1 by 1 by 1 MPI processor grid
  reading atoms ...
  1536 atoms
  read_data CPU = 0.003 seconds
mass            1 16.000000
mass            2 1.000000
replicate       3 3 3
Replication is creating a 3x3x3 = 27 times larger system...
  orthogonal box = (0 0 0) to (74.30778 74.30778 74.30778)
  1 by 1 by 1 MPI processor grid
  41472 atoms
  replicate CPU = 0.003 seconds
# --------------------- FORCE FIELDS ---------------------
pair_style      deepmd /pscratch/sd/y/yifanl/Work/h2o/pimd/benchmark/graph.pb
Summary of lammps deepmd module ...
  >>> Info of deepmd-kit:
  installed to:       /opt/deepmd-kit
  source:             
  source branch:      HEAD
  source commit:      5ec5eae
  source commit at:   2024-02-04 18:53:26 -0500
  support model ver.: 1.1 
  build variant:      cuda
  build with tf inc:  /opt/deepmd-kit/lib/python3.11/site-packages/tensorflow/include;/opt/deepmd-kit/include
  build with tf lib:  /opt/deepmd-kit/lib/python3.11/site-packages/tensorflow/libtensorflow_cc.so.2
  set tf intra_op_parallelism_threads: 0
  set tf inter_op_parallelism_threads: 0
  >>> Info of lammps module:
  use deepmd-kit at:  /opt/deepmd-kitpair_coeff * *
# --------------------- MD SETTINGS ----------------------
neighbor        2.0 bin
neigh_modify    every 10 delay 0 check no
timestep        0.000500
thermo          ${THERMO_FREQ}
thermo          1
thermo_style    custom step pe
#dump            1 all custom ${DUMP_FREQ} ${ibead}.xyz id type x y z
#dump_modify     1 sort id
fix 1 all pimd/langevin ensemble nvt integrator obabo temp ${TEMP} thermostat PILE_L 1234 tau ${TAU_T}
fix 1 all pimd/langevin ensemble nvt integrator obabo temp 300 thermostat PILE_L 1234 tau ${TAU_T}
fix 1 all pimd/langevin ensemble nvt integrator obabo temp 300 thermostat PILE_L 1234 tau 1
# --------------------- RUN ------------------------------
run             ${NSTEPS}
run             1000

CITE-CITE-CITE-CITE-CITE-CITE-CITE-CITE-CITE-CITE-CITE-CITE-CITE

Your simulation uses code contributions which should be cited:

- USER-DEEPMD package:

@article{Wang_ComputPhysCommun_2018_v228_p178,
  author = {Wang, Han and Zhang, Linfeng and Han, Jiequn and E, Weinan},
  doi = {10.1016/j.cpc.2018.03.016},
  url = {https://doi.org/10.1016/j.cpc.2018.03.016},
  year = 2018,
  month = {jul},
  publisher = {Elsevier {BV}},
  volume = 228,
  journal = {Comput. Phys. Commun.},
  title = {{DeePMD-kit: A deep learning package for many-body potential energy representation and molecular dynamics}},
  pages = {178--184}
}
@misc{Zeng_JChemPhys_2023_v159_p054801,
  title  = {{DeePMD-kit v2: A software package for deep potential models}},
  author =   {Jinzhe Zeng and Duo Zhang and Denghui Lu and Pinghui Mo and Zeyu Li
         and Yixiao Chen and Mari{\'a}n Rynik and Li'ang Huang and Ziyao Li and 
         Shaochen Shi and Yingze Wang and Haotian Ye and Ping Tuo and Jiabin
         Yang and Ye Ding and Yifan Li and Davide Tisi and Qiyu Zeng and Han 
         Bao and Yu Xia and Jiameng Huang and Koki Muraoka and Yibo Wang and 
         Junhan Chang and Fengbo Yuan and Sigbj{\o}rn L{\o}land Bore and Chun
         Cai and Yinnian Lin and Bo Wang and Jiayan Xu and Jia-Xin Zhu and 
         Chenxing Luo and Yuzhi Zhang and Rhys E A Goodall and Wenshuo Liang
         and Anurag Kumar Singh and Sikai Yao and Jingchao Zhang and Renata
         Wentzcovitch and Jiequn Han and Jie Liu and Weile Jia and Darrin M
         York and Weinan E and Roberto Car and Linfeng Zhang and Han Wang},
  journal =  {J. Chem. Phys.},
  volume =   159,
  issue =    5,  
  year =    2023,
  pages  =   054801,
  doi =      {10.1063/5.0155600},
}

CITE-CITE-CITE-CITE-CITE-CITE-CITE-CITE-CITE-CITE-CITE-CITE-CITE

Generated 0 of 1 mixed pair_coeff terms from geometric mixing rule

Initializing PI Langevin equation thermostat...
Bead ID    |    omega    |    tau    |    c1    |    c2
    0     0.00000000e+00 1.00000000e+00 9.99750031e-01 2.23578850e-02
    1     2.46383091e+02 2.02936004e-03 8.84094302e-01 4.67308533e-01
    2     4.90393378e+02 1.01958962e-03 7.82550604e-01 6.22586984e-01
    3     7.29680909e+02 6.85231028e-04 6.94307415e-01 7.19678548e-01
    4     9.61941214e+02 5.19782282e-04 6.18183088e-01 7.86034141e-01
    5     1.18493750e+03 4.21963184e-04 5.52960477e-01 8.33207484e-01
    6     1.39652219e+03 3.58032263e-04 4.97449570e-01 8.67492896e-01
    7     1.59465761e+03 3.13546932e-04 4.50530815e-01 8.92760878e-01
    8     1.77743560e+03 2.81304144e-04 4.11182633e-01 9.11552984e-01
    9     1.94309592e+03 2.57321317e-04 3.78496688e-01 9.25602646e-01
    10     2.09004316e+03 2.39229510e-04 3.51684231e-01 9.36118690e-01
    11     2.21686214e+03 2.25544021e-04 3.30076422e-01 9.43954213e-01
    12     2.32233153e+03 2.15300871e-04 3.13120943e-01 9.49713259e-01
    13     2.40543559e+03 2.07862560e-04 3.00376739e-01 9.53820641e-01
    14     2.46537400e+03 2.02808986e-04 2.91508242e-01 9.56568317e-01
    15     2.50156951e+03 1.99874518e-04 2.86280050e-01 9.58145987e-01
    16     2.51367353e+03 1.98912068e-04 2.84552711e-01 9.58660396e-01
    17     2.50156951e+03 1.99874518e-04 2.86280050e-01 9.58145987e-01
    18     2.46537400e+03 2.02808986e-04 2.91508242e-01 9.56568317e-01
    19     2.40543559e+03 2.07862560e-04 3.00376739e-01 9.53820641e-01
    20     2.32233153e+03 2.15300871e-04 3.13120943e-01 9.49713259e-01
    21     2.21686214e+03 2.25544021e-04 3.30076422e-01 9.43954213e-01
    22     2.09004316e+03 2.39229510e-04 3.51684231e-01 9.36118690e-01
    23     1.94309592e+03 2.57321317e-04 3.78496688e-01 9.25602646e-01
    24     1.77743560e+03 2.81304144e-04 4.11182633e-01 9.11552984e-01
    25     1.59465761e+03 3.13546932e-04 4.50530815e-01 8.92760878e-01
    26     1.39652219e+03 3.58032263e-04 4.97449570e-01 8.67492896e-01
    27     1.18493750e+03 4.21963184e-04 5.52960477e-01 8.33207484e-01
    28     9.61941214e+02 5.19782282e-04 6.18183088e-01 7.86034141e-01
    29     7.29680909e+02 6.85231028e-04 6.94307415e-01 7.19678548e-01
    30     4.90393378e+02 1.01958962e-03 7.82550604e-01 6.22586984e-01
    31     2.46383091e+02 2.02936004e-03 8.84094302e-01 4.67308533e-01
PILE_L thermostat successfully initialized!

Neighbor list info ...
  update: every = 10 steps, delay = 0 steps, check = no
  max neighbors/atom: 2000, page size: 100000
  master list distance cutoff = 8
  ghost atom cutoff = 8
  binsize = 4, bins = 19 19 19
  1 neighbor lists, perpetual/occasional/extra = 1 0 0
  (1) pair deepmd, perpetual
      attributes: full, newton on
      pair build: full/bin/atomonly
      stencil: full/bin/3d
      bin: standard
Per MPI rank memory allocation (min/avg/max) = 47.09 | 47.09 | 47.09 Mbytes
   Step         PotEng    
         0  -6460847.9    
         1  -6460105.5    
         2  -6459549.6    
         3  -6459138.5    
         4  -6458802.1    
         5  -6458546.8    
         6  -6458316      
         7  -6458154.2    
         8  -6458036      
         9  -6457957.7    
        10  -6457937.6    
        11  -6457946.6    
        12  -6458005      
        13  -6458074.6    
        14  -6458085.7    
        15  -6458055.1    
        16  -6458010.5    
        17  -6457963      
        18  -6457913.1    
        19  -6457875.8    
        20  -6457909      
        21  -6457988      
        22  -6458096.9    
        23  -6458162.7    
        24  -6458235.1    
        25  -6458268.6    
        26  -6458248.5    
        27  -6458163.1    
        28  -6458134.5    
        29  -6458113.8    
        30  -6458160.6    
        31  -6458162.9    
        32  -6458131      
        33  -6458112.2    
        34  -6458102.1    
        35  -6458042      
        36  -6457986.5    
        37  -6457919.8    
        38  -6457867.9    
        39  -6457860.4    
        40  -6457881.3    
        41  -6457899.9    
        42  -6457941      
        43  -6457948.4    
        44  -6458022.5    
        45  -6458027.6    
        46  -6458017.3    
        47  -6457980.4    
        48  -6457961.7    
        49  -6457981.3    
        50  -6458010.3    
        51  -6458007.1    
        52  -6458029.7    
        53  -6458059.8    
        54  -6458038.5    
        55  -6457989.6    
        56  -6457950.1    
        57  -6457937.8    
        58  -6457951.8    
        59  -6457977.2    
        60  -6457944.1    
        61  -6457940.7    
        62  -6457966.9    
        63  -6458016      
        64  -6458015.4    
        65  -6458037.3    
        66  -6458060.2    
        67  -6458108.5    
        68  -6458110.5    
        69  -6458093.1    
        70  -6458064.7    
        71  -6458089.8    
        72  -6458078.1    
        73  -6458068.5    
        74  -6458079.9    
        75  -6458074.3    
        76  -6458064.4    
        77  -6458028.4    
        78  -6458013      
        79  -6458003.3    
        80  -6457944.9    
        81  -6457952.3    
        82  -6457944      
        83  -6457946.4    
        84  -6457946.9    
        85  -6458012.3    
        86  -6458057.4    
        87  -6458048.2    
        88  -6458070.8    
        89  -6458074.6    
        90  -6458078.7    
        91  -6458089.2    
        92  -6458095.7    
        93  -6458087.8    
        94  -6458066.1    
        95  -6458037.6    
        96  -6458007.9    
        97  -6457974.8    
        98  -6457994.3    
        99  -6457987.1    
       100  -6457973      
       101  -6457977.4    
       102  -6457972.7    
       103  -6457954.5    
       104  -6457980.5    
       105  -6457965.1    
       106  -6457998.5    
       107  -6457989.2    
       108  -6458005.8    
       109  -6458015.1    
       110  -6458048.9    
       111  -6458093.6    
       112  -6458100.8    
       113  -6458094.9    
       114  -6458053.8    
       115  -6458034.2    
       116  -6458041.3    
       117  -6458071.5    
       118  -6458020      
       119  -6457968.9    
       120  -6457980      
       121  -6457984.4    
       122  -6457947.5    
       123  -6457960      
       124  -6457970.4    
       125  -6457972.9    
       126  -6458013.5    
       127  -6458021      
       128  -6458027.1    
       129  -6458057.4    
       130  -6458039.5    
       131  -6458023.9    
       132  -6458004.5    
       133  -6458006.5    
       134  -6457991.8    
       135  -6458024.4    
       136  -6457944.7    
       137  -6457914.3    
       138  -6457900.4    
       139  -6457937.7    
       140  -6457939.4    
       141  -6457926.8    
       142  -6457904      
       143  -6457923.3    
       144  -6457922.5    
       145  -6457968.8    
       146  -6457961.9    
       147  -6457949.6    
       148  -6457938.6    
       149  -6457970.3    
       150  -6458016.7    
       151  -6458012.9    
       152  -6458009.8    
       153  -6458034.9    
       154  -6458059.3    
       155  -6458020      
       156  -6458003.4    
       157  -6458002.5    
       158  -6458009.8    
       159  -6458005      
       160  -6457982.6    
       161  -6457971.4    
       162  -6457984      
       163  -6457996.4    
       164  -6457986      
       165  -6457990.8    
       166  -6458021.5    
       167  -6457994.3    
       168  -6457978.4    
       169  -6457952.1    
       170  -6457989.4    
       171  -6458040.2    
       172  -6458047.7    
       173  -6458046.8    
       174  -6457992.6    
       175  -6457962.7    
       176  -6457990.7    
       177  -6457961.9    
       178  -6457980.6    
       179  -6457975      
       180  -6457966.9    
       181  -6457964.3    
       182  -6457975.1    
       183  -6457930.6    
       184  -6457897.1    
       185  -6457893.9    
       186  -6457965      
       187  -6457964.7    
       188  -6457933.1    
       189  -6457923.8    
       190  -6457931.6    
       191  -6457967.4    
       192  -6457985      
       193  -6457952.6    
       194  -6457957.1    
       195  -6457969.2    
       196  -6457988.5    
       197  -6458001.9    
       198  -6457966.2    
       199  -6457954      
       200  -6457942.6    
       201  -6457904.2    
       202  -6457883.7    
       203  -6457931.5    
       204  -6457891.6    
       205  -6457885.5    
       206  -6457922.8    
       207  -6457945.9    
       208  -6457954.8    
       209  -6457961.3    
       210  -6457997.3    
       211  -6458000      
       212  -6457989.9    
       213  -6457984.7    
       214  -6457930.1    
       215  -6457899.3    
       216  -6457919.3    
       217  -6457942.4    
       218  -6457936.8    
       219  -6457945.7    
       220  -6457949.8    
       221  -6457940.8    
       222  -6457903.7    
       223  -6457863.5    
       224  -6457879.6    
       225  -6457881.1    
       226  -6457895.4    
       227  -6457921      
       228  -6457936.2    
       229  -6457949      
       230  -6457929      
       231  -6457926      
       232  -6457922.7    
       233  -6457913.6    
       234  -6457919.8    
       235  -6457907.4    
       236  -6457903.8    
       237  -6457931.8    
       238  -6457917.8    
       239  -6457961.7    
       240  -6457953.6    
       241  -6457946      
       242  -6457949      
       243  -6457942.4    
       244  -6457933.3    
       245  -6457919.4    
       246  -6457920.9    
       247  -6457895.8    
       248  -6457903.3    
       249  -6457871.6    
       250  -6457909.2    
       251  -6457915.5    
       252  -6457926.6    
       253  -6457953.6    
       254  -6457941.8    
       255  -6457941.8    
       256  -6457959.1    
       257  -6457963.3    
       258  -6457968.2    
       259  -6457939.1    
       260  -6457948.1    
       261  -6457953.4    
       262  -6457977.6    
       263  -6457963.8    
       264  -6457974      
       265  -6458003.3    
       266  -6458010.4    
       267  -6457998.9    
       268  -6457957.2    
       269  -6457954.9    
       270  -6457948      
       271  -6457900.4    
       272  -6457902.1    
       273  -6457889.6    
       274  -6457901.8    
       275  -6457941.1    
       276  -6457949.9    
       277  -6457938.9    
       278  -6457887      
       279  -6457870.3    
       280  -6457930.4    
       281  -6457911.3    
       282  -6457914.1    
       283  -6457938.7    
       284  -6457913.4    
       285  -6457965.5    
       286  -6457963.3    
       287  -6457940.7    
       288  -6457952.1    
       289  -6457923.9    
       290  -6457901.6    
       291  -6457903.9    
       292  -6457900.7    
       293  -6457893      
       294  -6457852      
       295  -6457867.6    
       296  -6457886      
       297  -6457883.6    
       298  -6457910.1    
       299  -6457917.5    
       300  -6457928.4    
       301  -6457868.9    
       302  -6457895.5    
       303  -6457934.2    
       304  -6457896.9    
       305  -6457885.4    
       306  -6457893.2    
       307  -6457918.3    
       308  -6457902.9    
       309  -6457879.1    
       310  -6457896.4    
       311  -6457915.9    
       312  -6457943      
       313  -6457925      
       314  -6457857.7    
       315  -6457867.3    
       316  -6457879.1    
       317  -6457883.4    
       318  -6457875      
       319  -6457940.1    
       320  -6457926.7    
       321  -6457908.6    
       322  -6457899.3    
       323  -6457923.5    
       324  -6457894      
       325  -6457896.6    
       326  -6457886.1    
       327  -6457915.8    
       328  -6457868.3    
       329  -6457890.4    
       330  -6457915.2    
       331  -6457901.9    
       332  -6457892.8    
       333  -6457880.5    
       334  -6457903.5    
       335  -6457855.6    
       336  -6457838.8    
       337  -6457842.6    
       338  -6457851.8    
       339  -6457860      
       340  -6457891.3    
       341  -6457880.6    
       342  -6457876.6    
       343  -6457850.8    
       344  -6457889      
       345  -6457919.3    
       346  -6457915.9    
       347  -6457888.2    
       348  -6457866.2    
       349  -6457858.2    
       350  -6457862.7    
       351  -6457861.5    
       352  -6457870.3    
       353  -6457877.5    
       354  -6457862.2    
       355  -6457864.9    
       356  -6457843.1    
       357  -6457872.6    
       358  -6457874.5    
       359  -6457884      
       360  -6457894.8    
       361  -6457867.2    
       362  -6457856.5    
       363  -6457873.3    
       364  -6457869.5    
       365  -6457886.5    
       366  -6457887      
       367  -6457869.8    
       368  -6457846.4    
       369  -6457851.2    
       370  -6457845.8    
       371  -6457871.1    
       372  -6457852.5    
       373  -6457835.1    
       374  -6457873.6    
       375  -6457878.6    
       376  -6457893.9    
       377  -6457889.4    
       378  -6457889.7    
       379  -6457891.7    
       380  -6457893.1    
       381  -6457851.2    
       382  -6457853.4    
       383  -6457856.2    
       384  -6457848.4    
       385  -6457846.8    
       386  -6457840.4    
       387  -6457866.8    
       388  -6457889      
       389  -6457929.3    
       390  -6457890      
       391  -6457881      
       392  -6457884.8    
       393  -6457872.1    
       394  -6457869.9    
       395  -6457842.9    
       396  -6457860.6    
       397  -6457864.3    
       398  -6457869.3    
       399  -6457840.2    
       400  -6457859      
       401  -6457844      
       402  -6457858.9    
       403  -6457858.5    
       404  -6457882.2    
       405  -6457842      
       406  -6457877.5    
       407  -6457867.1    
       408  -6457848.4    
       409  -6457870.6    
       410  -6457866.1    
       411  -6457860.4    
       412  -6457850.2    
       413  -6457861.5    
       414  -6457886.6    
       415  -6457863.9    
       416  -6457884      
       417  -6457876      
       418  -6457857.6    
       419  -6457876.4    
       420  -6457877.5    
       421  -6457856      
       422  -6457835.7    
       423  -6457818.8    
       424  -6457852.4    
       425  -6457866      
       426  -6457875.7    
       427  -6457859.9    
       428  -6457861.2    
       429  -6457847.9    
       430  -6457843.9    
       431  -6457827.1    
       432  -6457848.5    
       433  -6457867.3    
       434  -6457867.5    
       435  -6457831.4    
       436  -6457829.8    
       437  -6457830.3    
       438  -6457863.9    
       439  -6457855.5    
       440  -6457849.2    
       441  -6457869      
       442  -6457869.2    
       443  -6457913.3    
       444  -6457876.9    
       445  -6457897.1    
       446  -6457855.2    
       447  -6457864      
       448  -6457852.7    
       449  -6457851      
       450  -6457876.1    
       451  -6457869.2    
       452  -6457879.1    
       453  -6457881.9    
       454  -6457890      
       455  -6457872      
       456  -6457840.4    
       457  -6457870.7    
       458  -6457859.3    
       459  -6457868      
       460  -6457861.9    
       461  -6457858.9    
       462  -6457867      
       463  -6457868.4    
       464  -6457882.3    
       465  -6457893.6    
       466  -6457852.3    
       467  -6457846.6    
       468  -6457854      
       469  -6457873      
       470  -6457870.4    
       471  -6457866.7    
       472  -6457881.4    
       473  -6457827.8    
       474  -6457860.5    
       475  -6457868      
       476  -6457838.2    
       477  -6457854.7    
       478  -6457848.8    
       479  -6457872.4    
       480  -6457850.8    
       481  -6457845.5    
       482  -6457815.4    
       483  -6457823.2    
       484  -6457884.9    
       485  -6457868.3    
       486  -6457866.4    
       487  -6457894.3    
       488  -6457855.3    
       489  -6457865.5    
       490  -6457845.1    
       491  -6457847.7    
       492  -6457860.5    
       493  -6457827.5    
       494  -6457856.3    
       495  -6457845.8    
       496  -6457862.6    
       497  -6457871.4    
       498  -6457848.4    
       499  -6457825      
       500  -6457836.6    
       501  -6457865.6    
       502  -6457840.2    
       503  -6457867.9    
       504  -6457871.1    
       505  -6457887      
       506  -6457877      
       507  -6457898.2    
       508  -6457857.9    
       509  -6457886.2    
       510  -6457890.5    
       511  -6457883      
       512  -6457870      
       513  -6457810.4    
       514  -6457814.7    
       515  -6457812.9    
       516  -6457808.1    
       517  -6457845.7    
       518  -6457854.7    
       519  -6457833.4    
       520  -6457831.1    
       521  -6457857.7    
       522  -6457827.6    
       523  -6457810.6    
       524  -6457815.4    
       525  -6457816.8    
       526  -6457852.2    
       527  -6457871.8    
       528  -6457863.2    
       529  -6457865.6    
       530  -6457856.6    
       531  -6457879.7    
       532  -6457889.2    
       533  -6457891.9    
       534  -6457904.6    
       535  -6457907.6    
       536  -6457895.6    
       537  -6457895.9    
       538  -6457869.2    
       539  -6457875.8    
       540  -6457877.1    
       541  -6457887.9    
       542  -6457897.4    
       543  -6457854      
       544  -6457888.8    
       545  -6457906.1    
       546  -6457904.5    
       547  -6457888.4    
       548  -6457875.5    
       549  -6457864.3    
       550  -6457869      
       551  -6457853.8    
       552  -6457821.2    
       553  -6457832.7    
       554  -6457882.4    
       555  -6457890      
       556  -6457856      
       557  -6457820.2    
       558  -6457852.7    
       559  -6457845.1    
       560  -6457863.8    
       561  -6457806.1    
       562  -6457867.7    
       563  -6457864.4    
       564  -6457865      
       565  -6457870.8    
       566  -6457894.5    
       567  -6457829.4    
       568  -6457815.4    
       569  -6457842.9    
       570  -6457848.4    
       571  -6457843      
       572  -6457829.8    
       573  -6457878.4    
       574  -6457878      
       575  -6457903.3    
       576  -6457878.5    
       577  -6457849.3    
       578  -6457869.1    
       579  -6457897.7    
       580  -6457900.5    
       581  -6457865.1    
       582  -6457843.5    
       583  -6457848.1    
       584  -6457868.9    
       585  -6457857.2    
       586  -6457826.4    
       587  -6457828.3    
       588  -6457807.2    
       589  -6457823.3    
       590  -6457844.8    
       591  -6457845.7    
       592  -6457835.7    
       593  -6457868.4    
       594  -6457857      
       595  -6457827.9    
       596  -6457837      
       597  -6457841      
       598  -6457832.8    
       599  -6457831.4    
       600  -6457829.5    
       601  -6457826.4    
       602  -6457817.9    
       603  -6457824.3    
       604  -6457807.1    
       605  -6457815.3    
       606  -6457858.5    
       607  -6457867.9    
       608  -6457861.4    
       609  -6457877.3    
       610  -6457852.7    
       611  -6457821.9    
       612  -6457804.9    
       613  -6457822.8    
       614  -6457849.9    
       615  -6457829.4    
       616  -6457841.5    
       617  -6457846.4    
       618  -6457846.1    
       619  -6457813.9    
       620  -6457830.1    
       621  -6457846.8    
       622  -6457813.4    
       623  -6457755.6    
       624  -6457791.6    
       625  -6457802.6    
       626  -6457774.7    
       627  -6457777.6    
       628  -6457792.2    
       629  -6457796.1    
       630  -6457784.5    
       631  -6457785.4    
       632  -6457809.8    
       633  -6457807      
       634  -6457816.6    
       635  -6457821.7    
       636  -6457793.9    
       637  -6457799.8    
       638  -6457775.8    
       639  -6457790.2    
       640  -6457829.2    
       641  -6457833      
       642  -6457805.5    
       643  -6457781.7    
       644  -6457808.8    
       645  -6457829.6    
       646  -6457842      
       647  -6457840.8    
       648  -6457838      
       649  -6457801      
       650  -6457809.6    
       651  -6457836.5    
       652  -6457833.6    
       653  -6457857.7    
       654  -6457876.3    
       655  -6457867.1    
       656  -6457815.9    
       657  -6457808.3    
       658  -6457838.3    
       659  -6457846.7    
       660  -6457839.8    
       661  -6457826.4    
       662  -6457782      
       663  -6457806.3    
       664  -6457811.2    
       665  -6457847.8    
       666  -6457850.5    
       667  -6457797.2    
       668  -6457817.7    
       669  -6457840.5    
       670  -6457844.3    
       671  -6457848.8    
       672  -6457797      
       673  -6457794      
       674  -6457789      
       675  -6457791.7    
       676  -6457797.7    
       677  -6457792      
       678  -6457790.7    
       679  -6457809.4    
       680  -6457779.5    
       681  -6457768.4    
       682  -6457798.9    
       683  -6457813.4    
       684  -6457788.7    
       685  -6457795.2    
       686  -6457792.3    
       687  -6457790.7    
       688  -6457827.8    
       689  -6457856.3    
       690  -6457854.9    
       691  -6457850.1    
       692  -6457831.3    
       693  -6457846.6    
       694  -6457860.4    
       695  -6457843.7    
       696  -6457850.9    
       697  -6457804.8    
       698  -6457776.8    
       699  -6457762      
       700  -6457770.1    
       701  -6457781.7    
       702  -6457802.5    
       703  -6457829.4    
       704  -6457788.8    
       705  -6457788.4    
       706  -6457808      
       707  -6457814.8    
       708  -6457826      
       709  -6457803.7    
       710  -6457786.9    
       711  -6457755.4    
       712  -6457781.3    
       713  -6457790.2    
       714  -6457819.2    
       715  -6457833.5    
       716  -6457821.4    
       717  -6457817.2    
       718  -6457806.9    
       719  -6457781.5    
       720  -6457787.7    
       721  -6457805.2    
       722  -6457808.5    
       723  -6457795.8    
       724  -6457820.5    
       725  -6457780.1    
       726  -6457822.4    
       727  -6457816.2    
       728  -6457755.3    
       729  -6457767.4    
       730  -6457808.3    
       731  -6457820.9    
       732  -6457839.8    
       733  -6457816.3    
       734  -6457804.3    
       735  -6457760      
       736  -6457783.9    
       737  -6457790.5    
       738  -6457797.6    
       739  -6457810.9    
       740  -6457830.7    
       741  -6457779.7    
       742  -6457752.5    
       743  -6457767.1    
       744  -6457773.2    
       745  -6457786.9    
       746  -6457777.5    
       747  -6457805.8    
       748  -6457798.9    
       749  -6457771.8    
       750  -6457794.2    
       751  -6457834.3    
       752  -6457832.7    
       753  -6457828.1    
       754  -6457804.4    
       755  -6457791.1    
       756  -6457771.8    
       757  -6457786      
       758  -6457791.5    
       759  -6457793.5    
       760  -6457791.4    
       761  -6457800.6    
       762  -6457796.8    
       763  -6457770.1    
       764  -6457773.9    
       765  -6457766.3    
       766  -6457755.6    
       767  -6457753.8    
       768  -6457784      
       769  -6457789.5    
       770  -6457815.9    
       771  -6457818      
       772  -6457833.3    
       773  -6457801.9    
       774  -6457769      
       775  -6457767.1    
       776  -6457799.3    
       777  -6457769      
       778  -6457717.3    
       779  -6457774      
       780  -6457781.2    
       781  -6457807.1    
       782  -6457811.1    
       783  -6457796.8    
       784  -6457797.2    
       785  -6457787.3    
       786  -6457792.3    
       787  -6457804.1    
       788  -6457764      
       789  -6457750.2    
       790  -6457776.8    
       791  -6457742.9    
       792  -6457730.6    
       793  -6457754.9    
       794  -6457731.6    
       795  -6457753.1    
       796  -6457739.6    
       797  -6457735.4    
       798  -6457757.5    
       799  -6457785.6    
       800  -6457836.2    
       801  -6457800.5    
       802  -6457820.5    
       803  -6457799.2    
       804  -6457802.3    
       805  -6457779.7    
       806  -6457809.6    
       807  -6457806.2    
       808  -6457791.6    
       809  -6457822.8    
       810  -6457818.7    
       811  -6457852.9    
       812  -6457813.7    
       813  -6457811.2    
       814  -6457769.7    
       815  -6457797.4    
       816  -6457803.2    
       817  -6457827.2    
       818  -6457840.1    
       819  -6457839.9    
       820  -6457820.4    
       821  -6457804.4    
       822  -6457815.1    
       823  -6457778.6    
       824  -6457805.8    
       825  -6457816.2    
       826  -6457837.3    
       827  -6457832.2    
       828  -6457816.6    
       829  -6457826.7    
       830  -6457785.8    
       831  -6457795.7    
       832  -6457796.1    
       833  -6457759.6    
       834  -6457793.5    
       835  -6457777.6    
       836  -6457771.2    
       837  -6457746.1    
       838  -6457746.6    
       839  -6457763.6    
       840  -6457783      
       841  -6457800.1    
       842  -6457804.3    
       843  -6457795.4    
       844  -6457820.4    
       845  -6457779.5    
       846  -6457780.3    
       847  -6457808.4    
       848  -6457861      
       849  -6457845      
       850  -6457822.5    
       851  -6457813.1    
       852  -6457818.6    
       853  -6457774      
       854  -6457760.4    
       855  -6457775.8    
       856  -6457757.4    
       857  -6457787.9    
       858  -6457780.5    
       859  -6457764.9    
       860  -6457764.7    
       861  -6457780.9    
       862  -6457789.4    
       863  -6457745.8    
       864  -6457741.2    
       865  -6457745.6    
       866  -6457766.1    
       867  -6457753.7    
       868  -6457810.6    
       869  -6457807.4    
       870  -6457786.6    
       871  -6457795.2    
       872  -6457804.8    
       873  -6457784.7    
       874  -6457757.1    
       875  -6457771.5    
       876  -6457786.5    
       877  -6457793.2    
       878  -6457807.9    
       879  -6457790.4    
       880  -6457801.9    
       881  -6457794.1    
       882  -6457829.2    
       883  -6457830.9    
       884  -6457780.4    
       885  -6457767.9    
       886  -6457777.7    
       887  -6457779.7    
       888  -6457774.4    
       889  -6457773.1    
       890  -6457766.2    
       891  -6457779.6    
       892  -6457774      
       893  -6457749.6    
       894  -6457757.3    
       895  -6457781.3    
       896  -6457802.4    
       897  -6457815.4    
       898  -6457798.5    
       899  -6457804.4    
       900  -6457824.4    
       901  -6457779.6    
       902  -6457769.6    
       903  -6457786      
       904  -6457795.1    
       905  -6457804.4    
       906  -6457796.5    
       907  -6457780.9    
       908  -6457761      
       909  -6457770.9    
       910  -6457801.1    
       911  -6457803.4    
       912  -6457783      
       913  -6457776      
       914  -6457735      
       915  -6457745.3    
       916  -6457763.2    
       917  -6457758.6    
       918  -6457742.9    
       919  -6457744.4    
       920  -6457750.6    
       921  -6457775      
       922  -6457740.5    
       923  -6457758.5    
       924  -6457803.7    
       925  -6457808.9    
       926  -6457777.8    
       927  -6457757.9    
       928  -6457736.9    
       929  -6457754.6    
       930  -6457795.8    
       931  -6457822.4    
       932  -6457793.6    
       933  -6457770.3    
       934  -6457784.5    
       935  -6457792.5    
       936  -6457848.7    
       937  -6457855.9    
       938  -6457806      
       939  -6457811.1    
       940  -6457782.5    
       941  -6457782.5    
       942  -6457799      
       943  -6457807.8    
       944  -6457786.2    
       945  -6457765.4    
       946  -6457793.4    
       947  -6457824.3    
       948  -6457777.6    
       949  -6457769.5    
       950  -6457793.1    
       951  -6457797.5    
       952  -6457790      
       953  -6457784.6    
       954  -6457777.7    
       955  -6457767.8    
       956  -6457784.9    
       957  -6457763.2    
       958  -6457725.7    
       959  -6457737      
       960  -6457727.1    
       961  -6457753.7    
       962  -6457789.1    
       963  -6457793.2    
       964  -6457790.2    
       965  -6457787.3    
       966  -6457808.4    
       967  -6457810.6    
       968  -6457833      
       969  -6457809.1    
       970  -6457782.2    
       971  -6457783.5    
       972  -6457761.9    
       973  -6457754.8    
       974  -6457784      
       975  -6457753      
       976  -6457788.8    
       977  -6457793.9    
       978  -6457783.3    
       979  -6457800.8    
       980  -6457799.7    
       981  -6457855.7    
       982  -6457796.2    
       983  -6457790.8    
       984  -6457779.4    
       985  -6457786.8    
       986  -6457786      
       987  -6457815.9    
       988  -6457821.6    
       989  -6457791      
       990  -6457777.7    
       991  -6457777.5    
       992  -6457755.6    
       993  -6457788.6    
       994  -6457799.3    
       995  -6457784.1    
       996  -6457793      
       997  -6457804.3    
       998  -6457812.5    
       999  -6457800.4    
      1000  -6457794.9    
Loop time of 327.708 on 1 procs for 1000 steps with 41472 atoms

Performance: 0.132 ns/day, 182.060 hours/ns, 3.052 timesteps/s, 126.552 katom-step/s
80.3% CPU use with 1 MPI tasks x 1 OpenMP threads

MPI task timing breakdown:
Section |  min time  |  avg time  |  max time  |%varavg| %total
---------------------------------------------------------------
Pair    | 51.173     | 51.173     | 51.173     |   0.0 | 15.62
Neigh   | 19.347     | 19.347     | 19.347     |   0.0 |  5.90
Comm    | 0.2345     | 0.2345     | 0.2345     |   0.0 |  0.07
Output  | 0.025613   | 0.025613   | 0.025613   |   0.0 |  0.01
Modify  | 256.78     | 256.78     | 256.78     |   0.0 | 78.36
Other   |            | 0.1485     |            |       |  0.05

Nlocal:          41472 ave       41472 max       41472 min
Histogram: 1 0 0 0 0 0 0 0 0 0
Nghost:          32223 ave       32223 max       32223 min
Histogram: 1 0 0 0 0 0 0 0 0 0
Neighs:              0 ave           0 max           0 min
Histogram: 1 0 0 0 0 0 0 0 0 0
FullNghs:  8.96155e+06 ave 8.96155e+06 max 8.96155e+06 min
Histogram: 1 0 0 0 0 0 0 0 0 0

Total # of neighbors = 8961550
Ave neighs/atom = 216.08676
Neighbor list builds = 100
Dangerous builds not checked
write_data      final.${ibead}
write_data      final.07
System init for write_data ...
Generated 0 of 1 mixed pair_coeff terms from geometric mixing rule

Initializing PI Langevin equation thermostat...
Bead ID    |    omega    |    tau    |    c1    |    c2
    0     0.00000000e+00 1.00000000e+00 9.99750031e-01 2.23578850e-02
    1     2.46383091e+02 2.02936004e-03 8.84094302e-01 4.67308533e-01
    2     4.90393378e+02 1.01958962e-03 7.82550604e-01 6.22586984e-01
    3     7.29680909e+02 6.85231028e-04 6.94307415e-01 7.19678548e-01
    4     9.61941214e+02 5.19782282e-04 6.18183088e-01 7.86034141e-01
    5     1.18493750e+03 4.21963184e-04 5.52960477e-01 8.33207484e-01
    6     1.39652219e+03 3.58032263e-04 4.97449570e-01 8.67492896e-01
    7     1.59465761e+03 3.13546932e-04 4.50530815e-01 8.92760878e-01
    8     1.77743560e+03 2.81304144e-04 4.11182633e-01 9.11552984e-01
    9     1.94309592e+03 2.57321317e-04 3.78496688e-01 9.25602646e-01
    10     2.09004316e+03 2.39229510e-04 3.51684231e-01 9.36118690e-01
    11     2.21686214e+03 2.25544021e-04 3.30076422e-01 9.43954213e-01
    12     2.32233153e+03 2.15300871e-04 3.13120943e-01 9.49713259e-01
    13     2.40543559e+03 2.07862560e-04 3.00376739e-01 9.53820641e-01
    14     2.46537400e+03 2.02808986e-04 2.91508242e-01 9.56568317e-01
    15     2.50156951e+03 1.99874518e-04 2.86280050e-01 9.58145987e-01
    16     2.51367353e+03 1.98912068e-04 2.84552711e-01 9.58660396e-01
    17     2.50156951e+03 1.99874518e-04 2.86280050e-01 9.58145987e-01
    18     2.46537400e+03 2.02808986e-04 2.91508242e-01 9.56568317e-01
    19     2.40543559e+03 2.07862560e-04 3.00376739e-01 9.53820641e-01
    20     2.32233153e+03 2.15300871e-04 3.13120943e-01 9.49713259e-01
    21     2.21686214e+03 2.25544021e-04 3.30076422e-01 9.43954213e-01
    22     2.09004316e+03 2.39229510e-04 3.51684231e-01 9.36118690e-01
    23     1.94309592e+03 2.57321317e-04 3.78496688e-01 9.25602646e-01
    24     1.77743560e+03 2.81304144e-04 4.11182633e-01 9.11552984e-01
    25     1.59465761e+03 3.13546932e-04 4.50530815e-01 8.92760878e-01
    26     1.39652219e+03 3.58032263e-04 4.97449570e-01 8.67492896e-01
    27     1.18493750e+03 4.21963184e-04 5.52960477e-01 8.33207484e-01
    28     9.61941214e+02 5.19782282e-04 6.18183088e-01 7.86034141e-01
    29     7.29680909e+02 6.85231028e-04 6.94307415e-01 7.19678548e-01
    30     4.90393378e+02 1.01958962e-03 7.82550604e-01 6.22586984e-01
    31     2.46383091e+02 2.02936004e-03 8.84094302e-01 4.67308533e-01
PILE_L thermostat successfully initialized!

Total wall time: 0:05:52
