LAMMPS (10 Dec 2025 - Development - patch_24Dec2020-21955-gcf116c2130-modified)
Processor partition = 6
OMP_NUM_THREADS environment is not set. Defaulting to 1 thread.
  using 1 OpenMP thread(s) per MPI task
Loaded 1 plugins from /global/homes/y/yifanl/.conda/envs/dp-pimd-devel/lib/deepmd_lmp
Loaded 1 plugins from /global/homes/y/yifanl/.conda/envs/dp-pimd-devel/lib/deepmd_lmp
clear
OMP_NUM_THREADS environment is not set. Defaulting to 1 thread.
  using 1 OpenMP thread(s) per MPI task
Restoring plugin: deepmd pair style v3.1.1-24-gc346332d by Han Wang
Restoring plugin: deepspin pair style v3.1.1-24-gc346332d by Duo Zhang
Restoring plugin: compute deeptensor/atom v3.1.1-24-gc346332d by Han Wang
Restoring plugin: fix dplr v3.1.1-24-gc346332d by Han Wang
Restoring plugin: kspace pppm/dplr v3.1.1-24-gc346332d by Han Wang
Loaded 1 plugins from /global/homes/y/yifanl/.conda/envs/dp-pimd-devel/lib/deepmd_lmp
Loaded 1 plugins from /global/homes/y/yifanl/.conda/envs/dp-pimd-devel/lib/deepmd_lmp
# --------------------- VARIABLES-------------------------
variable        ibead           uloop 99 pad
variable        NSTEPS          equal 100
variable        THERMO_FREQ     equal 1
#variable        DUMP_FREQ       equal 4000
#variable        NREPEAT         equal ${NSTEPS}/${DUMP_FREQ}
variable        TEMP            equal 300.000000
variable        TAU_T           equal 1.000000
# ---------------------- INITIALIZAITION ------------------
units           metal
boundary        p p p
atom_style      atomic
atom_modify     map yes
# --------------------- ATOM DEFINITION ------------------
read_data       /pscratch/sd/y/yifanl/Work/h2o/pimd/initial_config/conf01
Reading data file ...
  orthogonal box = (0 0 0) to (24.76926 24.76926 24.76926)
  1 by 2 by 2 MPI processor grid
  reading atoms ...
  1536 atoms
  read_data CPU = 0.013 seconds
mass            1 16.000000
mass            2 1.000000
replicate       7 7 7
Replication is creating a 7x7x7 = 343 times larger system...
  orthogonal box = (0 0 0) to (173.38482 173.38482 173.38482)
  1 by 2 by 2 MPI processor grid
  526848 atoms
  replicate CPU = 0.028 seconds
# --------------------- FORCE FIELDS ---------------------
pair_style      deepmd /pscratch/sd/y/yifanl/Work/h2o/pimd/benchmark/graph.pb
Summary of lammps deepmd module ...
  >>> Info of deepmd-kit:
  installed to:       /global/homes/y/yifanl/.conda/envs/dp-pimd-devel
  source:             v3.1.1-24-gc346332d
  source branch:      devel
  source commit:      c346332d
  source commit at:   2025-11-14 11:37:53 +0000
  support model ver.: 1.1 
  build variant:      cuda
  build with tf inc:  /global/homes/y/yifanl/.conda/envs/dp-pimd-devel/lib/python3.12/site-packages/tensorflow/include;/global/homes/y/yifanl/.conda/envs/dp-pimd-devel/include
  build with tf lib:  /global/homes/y/yifanl/.conda/envs/dp-pimd-devel/lib/python3.12/site-packages/tensorflow/libtensorflow_cc.so.2
  set tf intra_op_parallelism_threads: 0
  set tf inter_op_parallelism_threads: 0
  >>> Info of lammps module:
  use deepmd-kit at:  /global/homes/y/yifanl/.conda/envs/dp-pimd-devel
  source:             v3.1.1-24-gc346332d
  source branch:      devel
  source commit:      c346332d
  source commit at:   2025-11-14 11:37:53 +0000
  build with inc:     
  build with lib:     /global/homes/y/yifanl/.conda/envs/dp-pimd-devel/lib/python3.12/site-packages/tensorflow
pair_coeff * *
# --------------------- MD SETTINGS ----------------------
neighbor        2.0 bin
neigh_modify    every 10 delay 0 check no
timestep        0.000500
#dump            1 all custom ${DUMP_FREQ} ${ibead}.xyz id type x y z
#dump_modify     1 sort id
fix 1 all pimd/langevin ensemble nvt integrator obabo temp ${TEMP} thermostat PILE_L 1234 tau ${TAU_T}
fix 1 all pimd/langevin ensemble nvt integrator obabo temp 300 thermostat PILE_L 1234 tau ${TAU_T}
fix 1 all pimd/langevin ensemble nvt integrator obabo temp 300 thermostat PILE_L 1234 tau 1
thermo_style    custom step pe f_1[11]
thermo          ${THERMO_FREQ}
thermo          1
# --------------------- RUN ------------------------------
run             ${NSTEPS}
run             100

CITE-CITE-CITE-CITE-CITE-CITE-CITE-CITE-CITE-CITE-CITE-CITE-CITE

Your simulation uses code contributions which should be cited:

- USER-DEEPMD package:

@article{Wang_ComputPhysCommun_2018_v228_p178,
  author = {Wang, Han and Zhang, Linfeng and Han, Jiequn and E, Weinan},
  doi = {10.1016/j.cpc.2018.03.016},
  url = {https://doi.org/10.1016/j.cpc.2018.03.016},
  year = 2018,
  month = {jul},
  publisher = {Elsevier {BV}},
  volume = 228,
  journal = {Comput. Phys. Commun.},
  title = {{DeePMD-kit: A deep learning package for many-body potential energy representation and molecular dynamics}},
  pages = {178--184}
}
@article{Zeng_JChemPhys_2023_v159_p054801,
  title  = {{DeePMD-kit v2: A software package for deep potential models}},
  author =   {Jinzhe Zeng and Duo Zhang and Denghui Lu and Pinghui Mo and Zeyu Li
         and Yixiao Chen and Mari{\'a}n Rynik and Li'ang Huang and Ziyao Li and 
         Shaochen Shi and Yingze Wang and Haotian Ye and Ping Tuo and Jiabin
         Yang and Ye Ding and Yifan Li and Davide Tisi and Qiyu Zeng and Han 
         Bao and Yu Xia and Jiameng Huang and Koki Muraoka and Yibo Wang and 
         Junhan Chang and Fengbo Yuan and Sigbj{\o}rn L{\o}land Bore and Chun
         Cai and Yinnian Lin and Bo Wang and Jiayan Xu and Jia-Xin Zhu and 
         Chenxing Luo and Yuzhi Zhang and Rhys E A Goodall and Wenshuo Liang
         and Anurag Kumar Singh and Sikai Yao and Jingchao Zhang and Renata
         Wentzcovitch and Jiequn Han and Jie Liu and Weile Jia and Darrin M
         York and Weinan E and Roberto Car and Linfeng Zhang and Han Wang},
  journal =  {J. Chem. Phys.},
  volume =   159,
  issue =    5,  
  year =    2023,
  pages  =   054801,
  doi =      {10.1063/5.0155600},
}
@Article{Zeng_JChemTheoryComput_2025_v21_p4375,
  author =   {Jinzhe Zeng and Duo Zhang and Anyang Peng and Xiangyu Zhang and Sensen
             He and Yan Wang and Xinzijian Liu and Hangrui Bi and Yifan Li and Chun
             Cai and Chengqian Zhang and Yiming Du and Jia-Xin Zhu and Pinghui Mo
             and Zhengtao Huang and Qiyu Zeng and Shaochen Shi and Xuejian Qin and
             Zhaoxi Yu and Chenxing Luo and Ye Ding and Yun-Pei Liu and Ruosong Shi
             and Zhenyu Wang and Sigbj{\o}rn L{\o}land Bore and Junhan Chang and
             Zhe Deng and Zhaohan Ding and Siyuan Han and Wanrun Jiang and Guolin
             Ke and Zhaoqing Liu and Denghui Lu and Koki Muraoka and Hananeh Oliaei
             and Anurag Kumar Singh and Haohui Que and Weihong Xu and Zhangmancang
             Xu and Yong-Bin Zhuang and Jiayu Dai and Timothy J. Giese and Weile
             Jia and Ben Xu and Darrin M. York and Linfeng Zhang and Han Wang},
    title =    {{DeePMD-kit v3: A Multiple-Backend Framework for Machine Learning
             Potentials}},
  journal =  {J. Chem. Theory Comput.},
  year =     2025,
  volume =   21,
  number =   9,
  pages =    {4375--4385},
  doi =      {10.1021/acs.jctc.5c00340},
}

CITE-CITE-CITE-CITE-CITE-CITE-CITE-CITE-CITE-CITE-CITE-CITE-CITE

Generated 0 of 1 mixed pair_coeff terms from geometric mixing rule
Neighbor list info ...
  update: every = 10 steps, delay = 0 steps, check = no
  max neighbors/atom: 2000, page size: 100000
  master list distance cutoff = 8
  ghost atom cutoff = 8
  binsize = 4, bins = 44 44 44
  1 neighbor lists, perpetual/occasional/extra = 1 0 0
  (1) pair deepmd, perpetual
      attributes: full, newton on
      pair build: full/bin/atomonly
      stencil: full/bin/3d
      bin: standard
Per MPI rank memory allocation (min/avg/max) = 143.4 | 143.4 | 143.4 Mbytes
   Step         PotEng        f_1[11]    
         0  -82076698       0            
         1  -82067522       0            
         2  -82060202       0            
         3  -82054902       0            
         4  -82051007       0            
         5  -82047942       0            
         6  -82045314       0            
         7  -82043104       0            
         8  -82041380       0            
         9  -82040382       0            
        10  -82040143       304          
        11  -82040368       304          
        12  -82040960       304          
        13  -82041536       304          
        14  -82041682       304          
        15  -82041395       304          
        16  -82040751       304          
        17  -82040018       304          
        18  -82039437       304          
        19  -82039148       304          
        20  -82039534       356          
        21  -82040463       356          
        22  -82041580       356          
        23  -82042631       356          
        24  -82043368       356          
        25  -82043525       356          
        26  -82043339       356          
        27  -82042879       356          
        28  -82042415       356          
        29  -82042133       356          
        30  -82042261       466          
        31  -82042327       466          
        32  -82042294       466          
        33  -82042158       466          
        34  -82041833       466          
        35  -82041241       466          
        36  -82040438       466          
        37  -82039812       466          
        38  -82039195       466          
        39  -82038960       466          
        40  -82039097       555          
        41  -82039381       555          
        42  -82039844       555          
        43  -82040205       555          
        44  -82040365       555          
        45  -82040488       555          
        46  -82040572       555          
        47  -82040590       555          
        48  -82040705       555          
        49  -82040923       555          
        50  -82040968       627          
        51  -82041151       627          
        52  -82041131       627          
        53  -82041088       627          
        54  -82040867       627          
        55  -82040542       627          
        56  -82040128       627          
        57  -82039891       627          
        58  -82039836       627          
        59  -82039902       627          
        60  -82040000       538          
        61  -82040195       538          
        62  -82040448       538          
        63  -82040524       538          
        64  -82040817       538          
        65  -82040986       538          
        66  -82041285       538          
        67  -82041489       538          
        68  -82041802       538          
        69  -82041873       538          
        70  -82042047       524          
        71  -82042004       524          
        72  -82041863       524          
        73  -82041724       524          
        74  -82041537       524          
        75  -82041359       524          
        76  -82041088       524          
        77  -82040765       524          
        78  -82040445       524          
        79  -82040435       524          
        80  -82040147       427          
        81  -82039963       427          
        82  -82040068       427          
        83  -82040295       427          
        84  -82040516       427          
        85  -82040776       427          
        86  -82041041       427          
        87  -82041280       427          
        88  -82041350       427          
        89  -82041367       427          
        90  -82041364       503          
        91  -82041262       503          
        92  -82041188       503          
        93  -82041221       503          
        94  -82040914       503          
        95  -82040774       503          
        96  -82040548       503          
        97  -82040422       503          
        98  -82040253       503          
        99  -82040218       503          
       100  -82040078       539          
Loop time of 124.217 on 4 procs for 100 steps with 526848 atoms

Performance: 0.035 ns/day, 690.094 hours/ns, 0.805 timesteps/s, 424.135 katom-step/s
74.0% CPU use with 4 MPI tasks x 1 OpenMP threads

MPI task timing breakdown:
Section |  min time  |  avg time  |  max time  |%varavg| %total
---------------------------------------------------------------
Pair    | 15.865     | 15.939     | 15.989     |   1.2 | 12.83
Neigh   | 12.964     | 13.015     | 13.066     |   1.0 | 10.48
Comm    | 0.51152    | 0.76495    | 0.93802    |  19.7 |  0.62
Output  | 0.0026906  | 0.0030293  | 0.0039521  |   1.0 |  0.00
Modify  | 94.21      | 94.44      | 94.693     |   2.3 | 76.03
Other   |            | 0.05425    |            |       |  0.04

Nlocal:         131712 ave      131725 max      131701 min
Histogram: 1 0 1 0 0 0 1 0 0 1
Nghost:        68814.5 ave       68827 max       68804 min
Histogram: 1 0 0 1 1 0 0 0 0 1
Neighs:              0 ave           0 max           0 min
Histogram: 4 0 0 0 0 0 0 0 0 0
FullNghs:  2.84514e+07 ave 2.84548e+07 max 2.84471e+07 min
Histogram: 1 0 0 1 0 0 0 0 1 1

Total # of neighbors = 1.1380546e+08
Ave neighs/atom = 216.01194
Neighbor list builds = 10
Dangerous builds not checked
write_data      final.${ibead}
write_data      final.07
System init for write_data ...
Generated 0 of 1 mixed pair_coeff terms from geometric mixing rule
Total wall time: 0:02:28
