LAMMPS (10 Dec 2025 - Development - patch_24Dec2020-21955-gcf116c2130-modified)
Processor partition = 4
OMP_NUM_THREADS environment is not set. Defaulting to 1 thread.
  using 1 OpenMP thread(s) per MPI task
Loaded 1 plugins from /global/homes/y/yifanl/.conda/envs/dp-pimd-devel/lib/deepmd_lmp
Loaded 1 plugins from /global/homes/y/yifanl/.conda/envs/dp-pimd-devel/lib/deepmd_lmp
clear
OMP_NUM_THREADS environment is not set. Defaulting to 1 thread.
  using 1 OpenMP thread(s) per MPI task
Restoring plugin: deepmd pair style v3.1.1-24-gc346332d by Han Wang
Restoring plugin: deepspin pair style v3.1.1-24-gc346332d by Duo Zhang
Restoring plugin: compute deeptensor/atom v3.1.1-24-gc346332d by Han Wang
Restoring plugin: fix dplr v3.1.1-24-gc346332d by Han Wang
Restoring plugin: kspace pppm/dplr v3.1.1-24-gc346332d by Han Wang
Loaded 1 plugins from /global/homes/y/yifanl/.conda/envs/dp-pimd-devel/lib/deepmd_lmp
Loaded 1 plugins from /global/homes/y/yifanl/.conda/envs/dp-pimd-devel/lib/deepmd_lmp
# --------------------- VARIABLES-------------------------
variable        ibead           uloop 99 pad
variable        NSTEPS          equal 100
variable        THERMO_FREQ     equal 1
#variable        DUMP_FREQ       equal 4000
#variable        NREPEAT         equal ${NSTEPS}/${DUMP_FREQ}
variable        TEMP            equal 300.000000
variable        TAU_T           equal 1.000000
# ---------------------- INITIALIZAITION ------------------
units           metal
boundary        p p p
atom_style      atomic
atom_modify     map yes
# --------------------- ATOM DEFINITION ------------------
read_data       /pscratch/sd/y/yifanl/Work/h2o/pimd/initial_config/conf01
Reading data file ...
  orthogonal box = (0 0 0) to (24.76926 24.76926 24.76926)
  1 by 2 by 2 MPI processor grid
  reading atoms ...
  1536 atoms
  read_data CPU = 0.013 seconds
mass            1 16.000000
mass            2 1.000000
replicate       7 7 7
Replication is creating a 7x7x7 = 343 times larger system...
  orthogonal box = (0 0 0) to (173.38482 173.38482 173.38482)
  1 by 2 by 2 MPI processor grid
  526848 atoms
  replicate CPU = 0.028 seconds
# --------------------- FORCE FIELDS ---------------------
pair_style      deepmd /pscratch/sd/y/yifanl/Work/h2o/pimd/benchmark/graph.pb
Summary of lammps deepmd module ...
  >>> Info of deepmd-kit:
  installed to:       /global/homes/y/yifanl/.conda/envs/dp-pimd-devel
  source:             v3.1.1-24-gc346332d
  source branch:      devel
  source commit:      c346332d
  source commit at:   2025-11-14 11:37:53 +0000
  support model ver.: 1.1 
  build variant:      cuda
  build with tf inc:  /global/homes/y/yifanl/.conda/envs/dp-pimd-devel/lib/python3.12/site-packages/tensorflow/include;/global/homes/y/yifanl/.conda/envs/dp-pimd-devel/include
  build with tf lib:  /global/homes/y/yifanl/.conda/envs/dp-pimd-devel/lib/python3.12/site-packages/tensorflow/libtensorflow_cc.so.2
  set tf intra_op_parallelism_threads: 0
  set tf inter_op_parallelism_threads: 0
  >>> Info of lammps module:
  use deepmd-kit at:  /global/homes/y/yifanl/.conda/envs/dp-pimd-devel
  source:             v3.1.1-24-gc346332d
  source branch:      devel
  source commit:      c346332d
  source commit at:   2025-11-14 11:37:53 +0000
  build with inc:     
  build with lib:     /global/homes/y/yifanl/.conda/envs/dp-pimd-devel/lib/python3.12/site-packages/tensorflow
pair_coeff * *
# --------------------- MD SETTINGS ----------------------
neighbor        2.0 bin
neigh_modify    every 10 delay 0 check no
timestep        0.000500
#dump            1 all custom ${DUMP_FREQ} ${ibead}.xyz id type x y z
#dump_modify     1 sort id
fix 1 all pimd/langevin ensemble nvt integrator obabo temp ${TEMP} thermostat PILE_L 1234 tau ${TAU_T}
fix 1 all pimd/langevin ensemble nvt integrator obabo temp 300 thermostat PILE_L 1234 tau ${TAU_T}
fix 1 all pimd/langevin ensemble nvt integrator obabo temp 300 thermostat PILE_L 1234 tau 1
thermo_style    custom step pe f_1[11]
thermo          ${THERMO_FREQ}
thermo          1
# --------------------- RUN ------------------------------
run             ${NSTEPS}
run             100

CITE-CITE-CITE-CITE-CITE-CITE-CITE-CITE-CITE-CITE-CITE-CITE-CITE

Your simulation uses code contributions which should be cited:

- USER-DEEPMD package:

@article{Wang_ComputPhysCommun_2018_v228_p178,
  author = {Wang, Han and Zhang, Linfeng and Han, Jiequn and E, Weinan},
  doi = {10.1016/j.cpc.2018.03.016},
  url = {https://doi.org/10.1016/j.cpc.2018.03.016},
  year = 2018,
  month = {jul},
  publisher = {Elsevier {BV}},
  volume = 228,
  journal = {Comput. Phys. Commun.},
  title = {{DeePMD-kit: A deep learning package for many-body potential energy representation and molecular dynamics}},
  pages = {178--184}
}
@article{Zeng_JChemPhys_2023_v159_p054801,
  title  = {{DeePMD-kit v2: A software package for deep potential models}},
  author =   {Jinzhe Zeng and Duo Zhang and Denghui Lu and Pinghui Mo and Zeyu Li
         and Yixiao Chen and Mari{\'a}n Rynik and Li'ang Huang and Ziyao Li and 
         Shaochen Shi and Yingze Wang and Haotian Ye and Ping Tuo and Jiabin
         Yang and Ye Ding and Yifan Li and Davide Tisi and Qiyu Zeng and Han 
         Bao and Yu Xia and Jiameng Huang and Koki Muraoka and Yibo Wang and 
         Junhan Chang and Fengbo Yuan and Sigbj{\o}rn L{\o}land Bore and Chun
         Cai and Yinnian Lin and Bo Wang and Jiayan Xu and Jia-Xin Zhu and 
         Chenxing Luo and Yuzhi Zhang and Rhys E A Goodall and Wenshuo Liang
         and Anurag Kumar Singh and Sikai Yao and Jingchao Zhang and Renata
         Wentzcovitch and Jiequn Han and Jie Liu and Weile Jia and Darrin M
         York and Weinan E and Roberto Car and Linfeng Zhang and Han Wang},
  journal =  {J. Chem. Phys.},
  volume =   159,
  issue =    5,  
  year =    2023,
  pages  =   054801,
  doi =      {10.1063/5.0155600},
}
@Article{Zeng_JChemTheoryComput_2025_v21_p4375,
  author =   {Jinzhe Zeng and Duo Zhang and Anyang Peng and Xiangyu Zhang and Sensen
             He and Yan Wang and Xinzijian Liu and Hangrui Bi and Yifan Li and Chun
             Cai and Chengqian Zhang and Yiming Du and Jia-Xin Zhu and Pinghui Mo
             and Zhengtao Huang and Qiyu Zeng and Shaochen Shi and Xuejian Qin and
             Zhaoxi Yu and Chenxing Luo and Ye Ding and Yun-Pei Liu and Ruosong Shi
             and Zhenyu Wang and Sigbj{\o}rn L{\o}land Bore and Junhan Chang and
             Zhe Deng and Zhaohan Ding and Siyuan Han and Wanrun Jiang and Guolin
             Ke and Zhaoqing Liu and Denghui Lu and Koki Muraoka and Hananeh Oliaei
             and Anurag Kumar Singh and Haohui Que and Weihong Xu and Zhangmancang
             Xu and Yong-Bin Zhuang and Jiayu Dai and Timothy J. Giese and Weile
             Jia and Ben Xu and Darrin M. York and Linfeng Zhang and Han Wang},
    title =    {{DeePMD-kit v3: A Multiple-Backend Framework for Machine Learning
             Potentials}},
  journal =  {J. Chem. Theory Comput.},
  year =     2025,
  volume =   21,
  number =   9,
  pages =    {4375--4385},
  doi =      {10.1021/acs.jctc.5c00340},
}

CITE-CITE-CITE-CITE-CITE-CITE-CITE-CITE-CITE-CITE-CITE-CITE-CITE

Generated 0 of 1 mixed pair_coeff terms from geometric mixing rule
Neighbor list info ...
  update: every = 10 steps, delay = 0 steps, check = no
  max neighbors/atom: 2000, page size: 100000
  master list distance cutoff = 8
  ghost atom cutoff = 8
  binsize = 4, bins = 44 44 44
  1 neighbor lists, perpetual/occasional/extra = 1 0 0
  (1) pair deepmd, perpetual
      attributes: full, newton on
      pair build: full/bin/atomonly
      stencil: full/bin/3d
      bin: standard
Per MPI rank memory allocation (min/avg/max) = 143.4 | 143.4 | 143.4 Mbytes
   Step         PotEng        f_1[11]    
         0  -82076698       0            
         1  -82067492       0            
         2  -82060260       0            
         3  -82054974       0            
         4  -82051075       0            
         5  -82047939       0            
         6  -82045340       0            
         7  -82043062       0            
         8  -82041251       0            
         9  -82040307       0            
        10  -82040050       334          
        11  -82040394       334          
        12  -82041020       334          
        13  -82041502       334          
        14  -82041672       334          
        15  -82041412       334          
        16  -82040778       334          
        17  -82039987       334          
        18  -82039167       334          
        19  -82038992       334          
        20  -82039470       364          
        21  -82040405       364          
        22  -82041578       364          
        23  -82042762       364          
        24  -82043608       364          
        25  -82043671       364          
        26  -82043398       364          
        27  -82042838       364          
        28  -82042433       364          
        29  -82042244       364          
        30  -82042238       468          
        31  -82042246       468          
        32  -82042285       468          
        33  -82042176       468          
        34  -82041776       468          
        35  -82041289       468          
        36  -82040523       468          
        37  -82039750       468          
        38  -82039186       468          
        39  -82038921       468          
        40  -82039000       548          
        41  -82039230       548          
        42  -82039863       548          
        43  -82040341       548          
        44  -82040510       548          
        45  -82040474       548          
        46  -82040515       548          
        47  -82040646       548          
        48  -82040690       548          
        49  -82040798       548          
        50  -82041097       626          
        51  -82041030       626          
        52  -82041273       626          
        53  -82041187       626          
        54  -82040954       626          
        55  -82040504       626          
        56  -82040215       626          
        57  -82039915       626          
        58  -82039738       626          
        59  -82039923       626          
        60  -82040055       531          
        61  -82040335       531          
        62  -82040598       531          
        63  -82040703       531          
        64  -82040862       531          
        65  -82041067       531          
        66  -82041183       531          
        67  -82041374       531          
        68  -82041677       531          
        69  -82041846       531          
        70  -82042028       522          
        71  -82041891       522          
        72  -82041879       522          
        73  -82041724       522          
        74  -82041354       522          
        75  -82041124       522          
        76  -82040927       522          
        77  -82040661       522          
        78  -82040473       522          
        79  -82040140       522          
        80  -82040091       424          
        81  -82040032       424          
        82  -82040100       424          
        83  -82040189       424          
        84  -82040448       424          
        85  -82040630       424          
        86  -82040823       424          
        87  -82041223       424          
        88  -82041344       424          
        89  -82041432       424          
        90  -82041423       495          
        91  -82041331       495          
        92  -82041253       495          
        93  -82041188       495          
        94  -82041095       495          
        95  -82040875       495          
        96  -82040724       495          
        97  -82040505       495          
        98  -82040329       495          
        99  -82040143       495          
       100  -82039861       544          
Loop time of 124.217 on 4 procs for 100 steps with 526848 atoms

Performance: 0.035 ns/day, 690.096 hours/ns, 0.805 timesteps/s, 424.134 katom-step/s
73.8% CPU use with 4 MPI tasks x 1 OpenMP threads

MPI task timing breakdown:
Section |  min time  |  avg time  |  max time  |%varavg| %total
---------------------------------------------------------------
Pair    | 15.845     | 15.887     | 15.944     |   0.9 | 12.79
Neigh   | 12.986     | 13.009     | 13.034     |   0.5 | 10.47
Comm    | 0.4165     | 0.55985    | 0.72584    |  14.7 |  0.45
Output  | 0.0029089  | 0.0031883  | 0.0040023  |   0.8 |  0.00
Modify  | 94.601     | 94.702     | 94.856     |   1.0 | 76.24
Other   |            | 0.05561    |            |       |  0.04

Nlocal:         131712 ave      131717 max      131699 min
Histogram: 1 0 0 0 0 0 0 0 1 2
Nghost:          68837 ave       68889 max       68813 min
Histogram: 2 1 0 0 0 0 0 0 0 1
Neighs:              0 ave           0 max           0 min
Histogram: 4 0 0 0 0 0 0 0 0 0
FullNghs:  2.84505e+07 ave  2.8454e+07 max 2.84461e+07 min
Histogram: 1 0 0 0 0 1 1 0 0 1

Total # of neighbors = 1.1380185e+08
Ave neighs/atom = 216.00509
Neighbor list builds = 10
Dangerous builds not checked
write_data      final.${ibead}
write_data      final.05
System init for write_data ...
Generated 0 of 1 mixed pair_coeff terms from geometric mixing rule
Total wall time: 0:02:28
