LAMMPS (2 Aug 2023)
Processor partition = 4
OMP_NUM_THREADS environment is not set. Defaulting to 1 thread. (src/comm.cpp:98)
  using 1 OpenMP thread(s) per MPI task
Loaded 1 plugins from /opt/deepmd-kit/lib/deepmd_lmp
clear
OMP_NUM_THREADS environment is not set. Defaulting to 1 thread. (src/comm.cpp:98)
  using 1 OpenMP thread(s) per MPI task
Loaded 1 plugins from /opt/deepmd-kit/lib/deepmd_lmp
# --------------------- VARIABLES-------------------------
variable        ibead           uloop 99 pad
variable        NSTEPS          equal 1000
variable        THERMO_FREQ     equal 1
#variable        DUMP_FREQ       equal 4000
#variable        NREPEAT         equal ${NSTEPS}/${DUMP_FREQ}
variable        TEMP            equal 300.000000
variable        TAU_T           equal 1.000000
# ---------------------- INITIALIZAITION ------------------
units           metal
boundary        p p p
atom_style      atomic
atom_modify     map yes
# --------------------- ATOM DEFINITION ------------------
read_data       /pscratch/sd/y/yifanl/Work/h2o/pimd/initial_config/conf01
Reading data file ...
  orthogonal box = (0 0 0) to (24.76926 24.76926 24.76926)
  1 by 1 by 1 MPI processor grid
  reading atoms ...
  1536 atoms
  read_data CPU = 0.005 seconds
mass            1 16.000000
mass            2 1.000000
#replicate       2 2 2
# --------------------- FORCE FIELDS ---------------------
pair_style      deepmd /pscratch/sd/y/yifanl/Work/h2o/pimd/benchmark/graph.pb
Summary of lammps deepmd module ...
  >>> Info of deepmd-kit:
  installed to:       /opt/deepmd-kit
  source:             
  source branch:      HEAD
  source commit:      5ec5eae
  source commit at:   2024-02-04 18:53:26 -0500
  support model ver.: 1.1 
  build variant:      cuda
  build with tf inc:  /opt/deepmd-kit/lib/python3.11/site-packages/tensorflow/include;/opt/deepmd-kit/include
  build with tf lib:  /opt/deepmd-kit/lib/python3.11/site-packages/tensorflow/libtensorflow_cc.so.2
  set tf intra_op_parallelism_threads: 0
  set tf inter_op_parallelism_threads: 0
  >>> Info of lammps module:
  use deepmd-kit at:  /opt/deepmd-kitpair_coeff * *
# --------------------- MD SETTINGS ----------------------
neighbor        2.0 bin
neigh_modify    every 10 delay 0 check no
timestep        0.000500
thermo          ${THERMO_FREQ}
thermo          1
thermo_style    custom step pe
#dump            1 all custom ${DUMP_FREQ} ${ibead}.xyz id type x y z
#dump_modify     1 sort id
fix 1 all pimd/langevin ensemble nvt integrator obabo temp ${TEMP} thermostat PILE_L 1234 tau ${TAU_T}
fix 1 all pimd/langevin ensemble nvt integrator obabo temp 300 thermostat PILE_L 1234 tau ${TAU_T}
fix 1 all pimd/langevin ensemble nvt integrator obabo temp 300 thermostat PILE_L 1234 tau 1
# --------------------- RUN ------------------------------
run             ${NSTEPS}
run             1000

CITE-CITE-CITE-CITE-CITE-CITE-CITE-CITE-CITE-CITE-CITE-CITE-CITE

Your simulation uses code contributions which should be cited:

- USER-DEEPMD package:

@article{Wang_ComputPhysCommun_2018_v228_p178,
  author = {Wang, Han and Zhang, Linfeng and Han, Jiequn and E, Weinan},
  doi = {10.1016/j.cpc.2018.03.016},
  url = {https://doi.org/10.1016/j.cpc.2018.03.016},
  year = 2018,
  month = {jul},
  publisher = {Elsevier {BV}},
  volume = 228,
  journal = {Comput. Phys. Commun.},
  title = {{DeePMD-kit: A deep learning package for many-body potential energy representation and molecular dynamics}},
  pages = {178--184}
}
@misc{Zeng_JChemPhys_2023_v159_p054801,
  title  = {{DeePMD-kit v2: A software package for deep potential models}},
  author =   {Jinzhe Zeng and Duo Zhang and Denghui Lu and Pinghui Mo and Zeyu Li
         and Yixiao Chen and Mari{\'a}n Rynik and Li'ang Huang and Ziyao Li and 
         Shaochen Shi and Yingze Wang and Haotian Ye and Ping Tuo and Jiabin
         Yang and Ye Ding and Yifan Li and Davide Tisi and Qiyu Zeng and Han 
         Bao and Yu Xia and Jiameng Huang and Koki Muraoka and Yibo Wang and 
         Junhan Chang and Fengbo Yuan and Sigbj{\o}rn L{\o}land Bore and Chun
         Cai and Yinnian Lin and Bo Wang and Jiayan Xu and Jia-Xin Zhu and 
         Chenxing Luo and Yuzhi Zhang and Rhys E A Goodall and Wenshuo Liang
         and Anurag Kumar Singh and Sikai Yao and Jingchao Zhang and Renata
         Wentzcovitch and Jiequn Han and Jie Liu and Weile Jia and Darrin M
         York and Weinan E and Roberto Car and Linfeng Zhang and Han Wang},
  journal =  {J. Chem. Phys.},
  volume =   159,
  issue =    5,  
  year =    2023,
  pages  =   054801,
  doi =      {10.1063/5.0155600},
}

CITE-CITE-CITE-CITE-CITE-CITE-CITE-CITE-CITE-CITE-CITE-CITE-CITE

Generated 0 of 1 mixed pair_coeff terms from geometric mixing rule

Initializing PI Langevin equation thermostat...
Bead ID    |    omega    |    tau    |    c1    |    c2
    0     0.00000000e+00 1.00000000e+00 9.99750031e-01 2.23578850e-02
    1     2.46383091e+02 2.02936004e-03 8.84094302e-01 4.67308533e-01
    2     4.90393378e+02 1.01958962e-03 7.82550604e-01 6.22586984e-01
    3     7.29680909e+02 6.85231028e-04 6.94307415e-01 7.19678548e-01
    4     9.61941214e+02 5.19782282e-04 6.18183088e-01 7.86034141e-01
    5     1.18493750e+03 4.21963184e-04 5.52960477e-01 8.33207484e-01
    6     1.39652219e+03 3.58032263e-04 4.97449570e-01 8.67492896e-01
    7     1.59465761e+03 3.13546932e-04 4.50530815e-01 8.92760878e-01
    8     1.77743560e+03 2.81304144e-04 4.11182633e-01 9.11552984e-01
    9     1.94309592e+03 2.57321317e-04 3.78496688e-01 9.25602646e-01
    10     2.09004316e+03 2.39229510e-04 3.51684231e-01 9.36118690e-01
    11     2.21686214e+03 2.25544021e-04 3.30076422e-01 9.43954213e-01
    12     2.32233153e+03 2.15300871e-04 3.13120943e-01 9.49713259e-01
    13     2.40543559e+03 2.07862560e-04 3.00376739e-01 9.53820641e-01
    14     2.46537400e+03 2.02808986e-04 2.91508242e-01 9.56568317e-01
    15     2.50156951e+03 1.99874518e-04 2.86280050e-01 9.58145987e-01
    16     2.51367353e+03 1.98912068e-04 2.84552711e-01 9.58660396e-01
    17     2.50156951e+03 1.99874518e-04 2.86280050e-01 9.58145987e-01
    18     2.46537400e+03 2.02808986e-04 2.91508242e-01 9.56568317e-01
    19     2.40543559e+03 2.07862560e-04 3.00376739e-01 9.53820641e-01
    20     2.32233153e+03 2.15300871e-04 3.13120943e-01 9.49713259e-01
    21     2.21686214e+03 2.25544021e-04 3.30076422e-01 9.43954213e-01
    22     2.09004316e+03 2.39229510e-04 3.51684231e-01 9.36118690e-01
    23     1.94309592e+03 2.57321317e-04 3.78496688e-01 9.25602646e-01
    24     1.77743560e+03 2.81304144e-04 4.11182633e-01 9.11552984e-01
    25     1.59465761e+03 3.13546932e-04 4.50530815e-01 8.92760878e-01
    26     1.39652219e+03 3.58032263e-04 4.97449570e-01 8.67492896e-01
    27     1.18493750e+03 4.21963184e-04 5.52960477e-01 8.33207484e-01
    28     9.61941214e+02 5.19782282e-04 6.18183088e-01 7.86034141e-01
    29     7.29680909e+02 6.85231028e-04 6.94307415e-01 7.19678548e-01
    30     4.90393378e+02 1.01958962e-03 7.82550604e-01 6.22586984e-01
    31     2.46383091e+02 2.02936004e-03 8.84094302e-01 4.67308533e-01
PILE_L thermostat successfully initialized!

Neighbor list info ...
  update: every = 10 steps, delay = 0 steps, check = no
  max neighbors/atom: 2000, page size: 100000
  master list distance cutoff = 8
  ghost atom cutoff = 8
  binsize = 4, bins = 7 7 7
  1 neighbor lists, perpetual/occasional/extra = 1 0 0
  (1) pair deepmd, perpetual
      attributes: full, newton on
      pair build: full/bin/atomonly
      stencil: full/bin/3d
      bin: standard
Per MPI rank memory allocation (min/avg/max) = 3.963 | 3.963 | 3.963 Mbytes
   Step         PotEng    
         0  -239290.66    
         1  -239261.54    
         2  -239239.98    
         3  -239227.28    
         4  -239215.39    
         5  -239205.46    
         6  -239194.04    
         7  -239186.5     
         8  -239193.18    
         9  -239190.02    
        10  -239190.22    
        11  -239184.68    
        12  -239189.78    
        13  -239190.96    
        14  -239187.96    
        15  -239184.81    
        16  -239184.27    
        17  -239186.46    
        18  -239185.62    
        19  -239185.48    
        20  -239186.22    
        21  -239188.99    
        22  -239191.99    
        23  -239195.86    
        24  -239195.61    
        25  -239199.61    
        26  -239196.61    
        27  -239187.6     
        28  -239189.72    
        29  -239187.04    
        30  -239193.39    
        31  -239197.14    
        32  -239191.66    
        33  -239190.66    
        34  -239196.34    
        35  -239193.65    
        36  -239188.98    
        37  -239188.06    
        38  -239184.03    
        39  -239176.8     
        40  -239170.83    
        41  -239179.4     
        42  -239180.57    
        43  -239181.49    
        44  -239184.15    
        45  -239187.57    
        46  -239184.25    
        47  -239185       
        48  -239187.73    
        49  -239183.69    
        50  -239182.49    
        51  -239187.4     
        52  -239190.85    
        53  -239184.46    
        54  -239176.37    
        55  -239168.94    
        56  -239171.79    
        57  -239178.5     
        58  -239178.54    
        59  -239185.71    
        60  -239184.4     
        61  -239179.2     
        62  -239186.36    
        63  -239192.06    
        64  -239188.89    
        65  -239177.46    
        66  -239179.52    
        67  -239187.64    
        68  -239194.66    
        69  -239200.86    
        70  -239200.72    
        71  -239201.7     
        72  -239196.08    
        73  -239190.05    
        74  -239190.41    
        75  -239183.96    
        76  -239182.9     
        77  -239182.05    
        78  -239182.92    
        79  -239180.47    
        80  -239177.06    
        81  -239177.27    
        82  -239181.08    
        83  -239187.35    
        84  -239185.79    
        85  -239190.96    
        86  -239187.7     
        87  -239188.48    
        88  -239189.12    
        89  -239189.23    
        90  -239194.76    
        91  -239195.85    
        92  -239195.81    
        93  -239197.21    
        94  -239195.54    
        95  -239199.64    
        96  -239199.64    
        97  -239197.02    
        98  -239199.46    
        99  -239189.52    
       100  -239188.92    
       101  -239181.23    
       102  -239183.5     
       103  -239179.76    
       104  -239181.94    
       105  -239184.71    
       106  -239185.83    
       107  -239188.2     
       108  -239187.44    
       109  -239184.86    
       110  -239185.34    
       111  -239179.7     
       112  -239174.63    
       113  -239181.73    
       114  -239184.48    
       115  -239176.49    
       116  -239185.73    
       117  -239179.67    
       118  -239174.37    
       119  -239177.66    
       120  -239184.82    
       121  -239188.43    
       122  -239191.47    
       123  -239188.43    
       124  -239178.05    
       125  -239177.28    
       126  -239186.49    
       127  -239182.71    
       128  -239179.16    
       129  -239179.96    
       130  -239181.08    
       131  -239183.54    
       132  -239186.58    
       133  -239191.01    
       134  -239193.26    
       135  -239190.12    
       136  -239188.67    
       137  -239181.76    
       138  -239182.34    
       139  -239184.26    
       140  -239185.03    
       141  -239181.19    
       142  -239184.21    
       143  -239182.03    
       144  -239181.05    
       145  -239184.19    
       146  -239178.02    
       147  -239180.9     
       148  -239181.62    
       149  -239176.58    
       150  -239180.66    
       151  -239178.28    
       152  -239181.54    
       153  -239180.52    
       154  -239188.42    
       155  -239186.52    
       156  -239179.16    
       157  -239181.98    
       158  -239182.18    
       159  -239180.33    
       160  -239185.07    
       161  -239179.22    
       162  -239179.18    
       163  -239184.32    
       164  -239185.93    
       165  -239187.85    
       166  -239191.38    
       167  -239192.16    
       168  -239191.73    
       169  -239186.33    
       170  -239183.57    
       171  -239186.04    
       172  -239189.01    
       173  -239187.96    
       174  -239196.12    
       175  -239195.56    
       176  -239186.16    
       177  -239184.32    
       178  -239183.96    
       179  -239181.96    
       180  -239188.82    
       181  -239185.9     
       182  -239191.2     
       183  -239187.81    
       184  -239182.2     
       185  -239181.14    
       186  -239182.2     
       187  -239182       
       188  -239180.72    
       189  -239176.69    
       190  -239182.55    
       191  -239189.42    
       192  -239183.81    
       193  -239181.11    
       194  -239184.4     
       195  -239184.17    
       196  -239182.8     
       197  -239178.7     
       198  -239180.21    
       199  -239183.59    
       200  -239181.08    
       201  -239179.87    
       202  -239182.43    
       203  -239184.25    
       204  -239184.03    
       205  -239187.05    
       206  -239182.3     
       207  -239178.06    
       208  -239172.6     
       209  -239172.19    
       210  -239171.81    
       211  -239171.24    
       212  -239172.93    
       213  -239172.63    
       214  -239176.52    
       215  -239176.19    
       216  -239182.27    
       217  -239179.12    
       218  -239173.38    
       219  -239175.17    
       220  -239174.33    
       221  -239171.34    
       222  -239173.63    
       223  -239174.98    
       224  -239176.81    
       225  -239179.63    
       226  -239184.91    
       227  -239179.13    
       228  -239176.37    
       229  -239182.92    
       230  -239185.69    
       231  -239187.61    
       232  -239187.65    
       233  -239179.64    
       234  -239176.61    
       235  -239169.98    
       236  -239179.56    
       237  -239182.65    
       238  -239184.76    
       239  -239188.02    
       240  -239185.13    
       241  -239188.55    
       242  -239185.48    
       243  -239187.3     
       244  -239178.36    
       245  -239174.78    
       246  -239176.68    
       247  -239184.14    
       248  -239178.29    
       249  -239171.45    
       250  -239170.72    
       251  -239174.83    
       252  -239177.72    
       253  -239173.78    
       254  -239177.83    
       255  -239179.68    
       256  -239179.21    
       257  -239181.76    
       258  -239185.48    
       259  -239182.74    
       260  -239182.03    
       261  -239179.05    
       262  -239179.72    
       263  -239184.08    
       264  -239186.03    
       265  -239189.24    
       266  -239191.54    
       267  -239191.13    
       268  -239185.5     
       269  -239187.98    
       270  -239185.17    
       271  -239188.95    
       272  -239194.44    
       273  -239187.3     
       274  -239186.82    
       275  -239184.12    
       276  -239179.9     
       277  -239183.71    
       278  -239185.11    
       279  -239174.71    
       280  -239173.1     
       281  -239180.09    
       282  -239184.02    
       283  -239188.56    
       284  -239183.66    
       285  -239182.4     
       286  -239181.08    
       287  -239178.79    
       288  -239185.02    
       289  -239187.86    
       290  -239186.1     
       291  -239182.86    
       292  -239183.2     
       293  -239180.26    
       294  -239176.24    
       295  -239181.67    
       296  -239187.89    
       297  -239182.69    
       298  -239182.79    
       299  -239181.09    
       300  -239185.67    
       301  -239187.3     
       302  -239184.32    
       303  -239179.37    
       304  -239176.45    
       305  -239169.29    
       306  -239170.78    
       307  -239166.57    
       308  -239169.61    
       309  -239174.03    
       310  -239177.57    
       311  -239182.33    
       312  -239185.09    
       313  -239185.45    
       314  -239177.79    
       315  -239180.63    
       316  -239181.27    
       317  -239179.54    
       318  -239176.25    
       319  -239176.47    
       320  -239178.86    
       321  -239179.93    
       322  -239180.52    
       323  -239181.9     
       324  -239181.32    
       325  -239184.83    
       326  -239181.61    
       327  -239184.58    
       328  -239185.41    
       329  -239177.33    
       330  -239173.69    
       331  -239179.5     
       332  -239177.66    
       333  -239177.38    
       334  -239178.78    
       335  -239178       
       336  -239177       
       337  -239174.32    
       338  -239177.07    
       339  -239174.96    
       340  -239171.91    
       341  -239169.82    
       342  -239173.72    
       343  -239173.29    
       344  -239168.36    
       345  -239174.08    
       346  -239175.07    
       347  -239179.88    
       348  -239182.5     
       349  -239180.05    
       350  -239173.97    
       351  -239176.44    
       352  -239174.35    
       353  -239169.57    
       354  -239175.86    
       355  -239177.42    
       356  -239169.61    
       357  -239174.99    
       358  -239180.48    
       359  -239182.09    
       360  -239179.58    
       361  -239175.02    
       362  -239183.79    
       363  -239184.95    
       364  -239179.24    
       365  -239181.87    
       366  -239181.38    
       367  -239182.88    
       368  -239184.76    
       369  -239185.5     
       370  -239184.85    
       371  -239183.36    
       372  -239183.66    
       373  -239180.79    
       374  -239182.36    
       375  -239187.02    
       376  -239185.42    
       377  -239176.22    
       378  -239185.27    
       379  -239187.61    
       380  -239179.42    
       381  -239179.18    
       382  -239178.74    
       383  -239172.49    
       384  -239173.16    
       385  -239175.96    
       386  -239180.55    
       387  -239179.04    
       388  -239181.89    
       389  -239182.62    
       390  -239177.32    
       391  -239172.74    
       392  -239179.48    
       393  -239179.59    
       394  -239176.39    
       395  -239171.61    
       396  -239170.91    
       397  -239171.17    
       398  -239176.61    
       399  -239172.12    
       400  -239182.78    
       401  -239185.01    
       402  -239184.77    
       403  -239181.69    
       404  -239182.92    
       405  -239182.85    
       406  -239182.24    
       407  -239180.82    
       408  -239176.58    
       409  -239177.98    
       410  -239181.52    
       411  -239182.6     
       412  -239185.61    
       413  -239179.87    
       414  -239178.38    
       415  -239183.23    
       416  -239188.01    
       417  -239181.74    
       418  -239177.42    
       419  -239177.09    
       420  -239175.05    
       421  -239176.94    
       422  -239179.24    
       423  -239176.55    
       424  -239176.4     
       425  -239173.65    
       426  -239171.51    
       427  -239174.8     
       428  -239178.63    
       429  -239177.97    
       430  -239180.82    
       431  -239175.7     
       432  -239176.94    
       433  -239177.11    
       434  -239178.3     
       435  -239169.38    
       436  -239176.53    
       437  -239180.83    
       438  -239184       
       439  -239189.1     
       440  -239185.1     
       441  -239176.98    
       442  -239182.47    
       443  -239178.44    
       444  -239176       
       445  -239178.12    
       446  -239180.44    
       447  -239177.54    
       448  -239174.61    
       449  -239174.69    
       450  -239181.65    
       451  -239177.18    
       452  -239178.25    
       453  -239185.32    
       454  -239188.24    
       455  -239184       
       456  -239182.85    
       457  -239183.39    
       458  -239178.08    
       459  -239176.9     
       460  -239179.98    
       461  -239181.22    
       462  -239179.67    
       463  -239182.77    
       464  -239185.62    
       465  -239178.37    
       466  -239179.73    
       467  -239170.97    
       468  -239176.06    
       469  -239177.68    
       470  -239178.52    
       471  -239183.03    
       472  -239174.75    
       473  -239171.74    
       474  -239169.14    
       475  -239166.48    
       476  -239170.99    
       477  -239169.66    
       478  -239171.79    
       479  -239173.64    
       480  -239178.03    
       481  -239183.39    
       482  -239184.55    
       483  -239183.31    
       484  -239174.11    
       485  -239179.04    
       486  -239181.13    
       487  -239180.36    
       488  -239178.9     
       489  -239177.39    
       490  -239190.01    
       491  -239193.17    
       492  -239185.67    
       493  -239182.72    
       494  -239176.41    
       495  -239178.56    
       496  -239175.63    
       497  -239177.9     
       498  -239179.3     
       499  -239179.36    
       500  -239183.9     
       501  -239180.48    
       502  -239175.29    
       503  -239179.19    
       504  -239181.17    
       505  -239175.95    
       506  -239172       
       507  -239176.7     
       508  -239182.61    
       509  -239179.07    
       510  -239180.51    
       511  -239170.94    
       512  -239174.14    
       513  -239166.24    
       514  -239174.73    
       515  -239167.73    
       516  -239169.01    
       517  -239172.91    
       518  -239182.59    
       519  -239185.53    
       520  -239183.37    
       521  -239178.1     
       522  -239181.48    
       523  -239184.78    
       524  -239190.09    
       525  -239184.61    
       526  -239180.32    
       527  -239176.98    
       528  -239176.72    
       529  -239177.57    
       530  -239174.14    
       531  -239171.82    
       532  -239161.77    
       533  -239162.8     
       534  -239170.19    
       535  -239180.93    
       536  -239181.91    
       537  -239185.34    
       538  -239181.45    
       539  -239180.99    
       540  -239184.01    
       541  -239179.18    
       542  -239182.94    
       543  -239177.87    
       544  -239170.66    
       545  -239174.13    
       546  -239175.46    
       547  -239179.15    
       548  -239170.84    
       549  -239175.79    
       550  -239178.24    
       551  -239183.25    
       552  -239182.36    
       553  -239178.01    
       554  -239171.7     
       555  -239166.32    
       556  -239174.04    
       557  -239175.63    
       558  -239179.77    
       559  -239176.84    
       560  -239172.2     
       561  -239170.26    
       562  -239176.83    
       563  -239177.43    
       564  -239177.4     
       565  -239179.79    
       566  -239183.61    
       567  -239185.54    
       568  -239180.29    
       569  -239182.59    
       570  -239181.89    
       571  -239177.39    
       572  -239176.35    
       573  -239177.81    
       574  -239176.67    
       575  -239178.44    
       576  -239177.33    
       577  -239177.4     
       578  -239175.46    
       579  -239178.64    
       580  -239173.35    
       581  -239172.83    
       582  -239180.67    
       583  -239180.56    
       584  -239182.57    
       585  -239179.83    
       586  -239184.35    
       587  -239185.53    
       588  -239182.52    
       589  -239177.22    
       590  -239180.28    
       591  -239179.63    
       592  -239182.32    
       593  -239182.47    
       594  -239177.27    
       595  -239176.46    
       596  -239174.9     
       597  -239179.35    
       598  -239177.5     
       599  -239182.09    
       600  -239181.08    
       601  -239180.11    
       602  -239180.27    
       603  -239181.17    
       604  -239183.44    
       605  -239180.29    
       606  -239179.83    
       607  -239180.09    
       608  -239181.55    
       609  -239184.88    
       610  -239185.47    
       611  -239188.88    
       612  -239184.89    
       613  -239179.05    
       614  -239176.73    
       615  -239180.51    
       616  -239182.29    
       617  -239179.06    
       618  -239177.88    
       619  -239175.41    
       620  -239169.49    
       621  -239177.08    
       622  -239179.37    
       623  -239174.29    
       624  -239180.99    
       625  -239177.16    
       626  -239179.47    
       627  -239181.11    
       628  -239180.88    
       629  -239167.8     
       630  -239173.55    
       631  -239180.03    
       632  -239181.56    
       633  -239183.7     
       634  -239182.3     
       635  -239178.38    
       636  -239179.25    
       637  -239186.48    
       638  -239186.44    
       639  -239186.63    
       640  -239180.7     
       641  -239178.45    
       642  -239172.31    
       643  -239171.35    
       644  -239174.03    
       645  -239171.08    
       646  -239181.07    
       647  -239180.93    
       648  -239178.58    
       649  -239174.55    
       650  -239171.96    
       651  -239174.88    
       652  -239178.72    
       653  -239177.78    
       654  -239173.1     
       655  -239180.4     
       656  -239172.68    
       657  -239172.07    
       658  -239169.27    
       659  -239178.24    
       660  -239184.46    
       661  -239182.66    
       662  -239180.4     
       663  -239182.17    
       664  -239179.37    
       665  -239185.86    
       666  -239188.09    
       667  -239185.5     
       668  -239180.67    
       669  -239182.41    
       670  -239181.11    
       671  -239178.12    
       672  -239178.69    
       673  -239177.56    
       674  -239178.45    
       675  -239174.67    
       676  -239177.15    
       677  -239173.23    
       678  -239178.19    
       679  -239172.68    
       680  -239179.08    
       681  -239187.67    
       682  -239183.57    
       683  -239179.61    
       684  -239183.28    
       685  -239178.48    
       686  -239180.7     
       687  -239178.97    
       688  -239179.33    
       689  -239174.04    
       690  -239181.85    
       691  -239183.8     
       692  -239185.61    
       693  -239187.37    
       694  -239181.74    
       695  -239177.58    
       696  -239182.68    
       697  -239185.41    
       698  -239183.22    
       699  -239178.79    
       700  -239178.67    
       701  -239181.01    
       702  -239186.9     
       703  -239178.83    
       704  -239172.3     
       705  -239171.27    
       706  -239169.9     
       707  -239175.16    
       708  -239177.38    
       709  -239175.87    
       710  -239165.72    
       711  -239176.37    
       712  -239182.66    
       713  -239183.44    
       714  -239183.65    
       715  -239186.11    
       716  -239183.41    
       717  -239182.91    
       718  -239175.22    
       719  -239174.61    
       720  -239177.27    
       721  -239185.86    
       722  -239188.72    
       723  -239185.93    
       724  -239181.41    
       725  -239175.38    
       726  -239171.8     
       727  -239174.23    
       728  -239177       
       729  -239179.75    
       730  -239174.96    
       731  -239174.65    
       732  -239172.01    
       733  -239179.73    
       734  -239174.82    
       735  -239178.01    
       736  -239181.61    
       737  -239186.46    
       738  -239186.62    
       739  -239190.18    
       740  -239187.72    
       741  -239187.52    
       742  -239177.47    
       743  -239176.15    
       744  -239184.21    
       745  -239183.62    
       746  -239191.91    
       747  -239179.25    
       748  -239172.83    
       749  -239175.51    
       750  -239174.58    
       751  -239172.55    
       752  -239173.03    
       753  -239173.84    
       754  -239175.94    
       755  -239172.86    
       756  -239174.05    
       757  -239181.52    
       758  -239177.03    
       759  -239169.9     
       760  -239172.76    
       761  -239174.35    
       762  -239174.64    
       763  -239170.34    
       764  -239172.54    
       765  -239180.7     
       766  -239176.71    
       767  -239177.64    
       768  -239176.73    
       769  -239176.78    
       770  -239176.02    
       771  -239176.47    
       772  -239175.65    
       773  -239173.38    
       774  -239172.76    
       775  -239180.19    
       776  -239179.23    
       777  -239181.04    
       778  -239179.33    
       779  -239178.39    
       780  -239186.39    
       781  -239182.79    
       782  -239187.89    
       783  -239182.09    
       784  -239176.93    
       785  -239175.23    
       786  -239175.71    
       787  -239176.95    
       788  -239179.57    
       789  -239182.76    
       790  -239174.96    
       791  -239178.16    
       792  -239180.39    
       793  -239185.25    
       794  -239183.82    
       795  -239182.68    
       796  -239174.09    
       797  -239174.16    
       798  -239175.22    
       799  -239179.03    
       800  -239179.47    
       801  -239183.53    
       802  -239179.45    
       803  -239174.67    
       804  -239182.41    
       805  -239179.11    
       806  -239182.48    
       807  -239180.45    
       808  -239178.75    
       809  -239174.31    
       810  -239176.82    
       811  -239178.47    
       812  -239174.49    
       813  -239169.69    
       814  -239174.22    
       815  -239181.75    
       816  -239185.83    
       817  -239178.31    
       818  -239181.58    
       819  -239180.96    
       820  -239172.67    
       821  -239175.88    
       822  -239170.13    
       823  -239171.14    
       824  -239176.74    
       825  -239174.3     
       826  -239174.3     
       827  -239176.2     
       828  -239174.61    
       829  -239178       
       830  -239179.71    
       831  -239170.49    
       832  -239169.55    
       833  -239167.3     
       834  -239171.75    
       835  -239175.31    
       836  -239177.05    
       837  -239178.61    
       838  -239186.03    
       839  -239176.62    
       840  -239163.82    
       841  -239159.05    
       842  -239170.28    
       843  -239170.1     
       844  -239172.84    
       845  -239179.2     
       846  -239180.66    
       847  -239173.8     
       848  -239179.82    
       849  -239176.74    
       850  -239179.77    
       851  -239187.03    
       852  -239171.65    
       853  -239173.58    
       854  -239169.58    
       855  -239164.42    
       856  -239162.74    
       857  -239168.66    
       858  -239166.08    
       859  -239171.15    
       860  -239176.32    
       861  -239176.2     
       862  -239178.62    
       863  -239179.16    
       864  -239179.49    
       865  -239181.88    
       866  -239182.57    
       867  -239183.61    
       868  -239186.94    
       869  -239183.98    
       870  -239186.5     
       871  -239183.77    
       872  -239185.79    
       873  -239182.55    
       874  -239177.63    
       875  -239171.41    
       876  -239173       
       877  -239166.85    
       878  -239166.92    
       879  -239169.54    
       880  -239171.42    
       881  -239171.91    
       882  -239172.34    
       883  -239176.43    
       884  -239180.22    
       885  -239182.39    
       886  -239179.75    
       887  -239176.69    
       888  -239186.05    
       889  -239187.36    
       890  -239181.17    
       891  -239179.97    
       892  -239169.81    
       893  -239171.35    
       894  -239175.86    
       895  -239167.51    
       896  -239167.26    
       897  -239166.33    
       898  -239168.94    
       899  -239173.38    
       900  -239176.05    
       901  -239183.42    
       902  -239185.21    
       903  -239184.53    
       904  -239183.08    
       905  -239173.08    
       906  -239172.01    
       907  -239177.29    
       908  -239174.52    
       909  -239173.08    
       910  -239173.76    
       911  -239172.92    
       912  -239173.26    
       913  -239182.45    
       914  -239181.12    
       915  -239185.66    
       916  -239186.56    
       917  -239177.85    
       918  -239177.56    
       919  -239170.54    
       920  -239167.67    
       921  -239171.56    
       922  -239186.35    
       923  -239177.61    
       924  -239177.91    
       925  -239179.92    
       926  -239175.9     
       927  -239173.54    
       928  -239171.64    
       929  -239177.08    
       930  -239170.49    
       931  -239172.6     
       932  -239172.95    
       933  -239172.1     
       934  -239164.65    
       935  -239164.02    
       936  -239172.63    
       937  -239175.73    
       938  -239179.48    
       939  -239178.52    
       940  -239177.29    
       941  -239181.02    
       942  -239177.74    
       943  -239177.71    
       944  -239175.42    
       945  -239177.99    
       946  -239182.83    
       947  -239184.54    
       948  -239183.66    
       949  -239183.69    
       950  -239181.43    
       951  -239180.54    
       952  -239185.31    
       953  -239179.03    
       954  -239173.7     
       955  -239170.48    
       956  -239179.71    
       957  -239186.89    
       958  -239180.93    
       959  -239177.15    
       960  -239180.26    
       961  -239181.01    
       962  -239172.06    
       963  -239174.23    
       964  -239178.34    
       965  -239180.47    
       966  -239176.14    
       967  -239176.4     
       968  -239176.31    
       969  -239175.62    
       970  -239177.98    
       971  -239174.52    
       972  -239175.66    
       973  -239179.56    
       974  -239178.16    
       975  -239174.1     
       976  -239179.33    
       977  -239180.8     
       978  -239174.71    
       979  -239167.38    
       980  -239167.91    
       981  -239173.51    
       982  -239173.84    
       983  -239172.35    
       984  -239175.28    
       985  -239175.04    
       986  -239180.68    
       987  -239183.99    
       988  -239180.7     
       989  -239179.15    
       990  -239173.58    
       991  -239171.32    
       992  -239173.7     
       993  -239176.26    
       994  -239177.53    
       995  -239179.02    
       996  -239175.33    
       997  -239170.41    
       998  -239173.15    
       999  -239174.3     
      1000  -239172.79    
Loop time of 30.2344 on 1 procs for 1000 steps with 1536 atoms

Performance: 1.429 ns/day, 16.797 hours/ns, 33.075 timesteps/s, 50.803 katom-step/s
102.4% CPU use with 1 MPI tasks x 1 OpenMP threads

MPI task timing breakdown:
Section |  min time  |  avg time  |  max time  |%varavg| %total
---------------------------------------------------------------
Pair    | 21.857     | 21.857     | 21.857     |   0.0 | 72.29
Neigh   | 0.77838    | 0.77838    | 0.77838    |   0.0 |  2.57
Comm    | 0.031152   | 0.031152   | 0.031152   |   0.0 |  0.10
Output  | 0.012919   | 0.012919   | 0.012919   |   0.0 |  0.04
Modify  | 7.5453     | 7.5453     | 7.5453     |   0.0 | 24.96
Other   |            | 0.00943    |            |       |  0.03

Nlocal:           1536 ave        1536 max        1536 min
Histogram: 1 0 0 0 0 0 0 0 0 0
Nghost:           5208 ave        5208 max        5208 min
Histogram: 1 0 0 0 0 0 0 0 0 0
Neighs:              0 ave           0 max           0 min
Histogram: 1 0 0 0 0 0 0 0 0 0
FullNghs:       331996 ave      331996 max      331996 min
Histogram: 1 0 0 0 0 0 0 0 0 0

Total # of neighbors = 331996
Ave neighs/atom = 216.14323
Neighbor list builds = 100
Dangerous builds not checked
write_data      final.${ibead}
write_data      final.05
System init for write_data ...
Generated 0 of 1 mixed pair_coeff terms from geometric mixing rule

Initializing PI Langevin equation thermostat...
Bead ID    |    omega    |    tau    |    c1    |    c2
    0     0.00000000e+00 1.00000000e+00 9.99750031e-01 2.23578850e-02
    1     2.46383091e+02 2.02936004e-03 8.84094302e-01 4.67308533e-01
    2     4.90393378e+02 1.01958962e-03 7.82550604e-01 6.22586984e-01
    3     7.29680909e+02 6.85231028e-04 6.94307415e-01 7.19678548e-01
    4     9.61941214e+02 5.19782282e-04 6.18183088e-01 7.86034141e-01
    5     1.18493750e+03 4.21963184e-04 5.52960477e-01 8.33207484e-01
    6     1.39652219e+03 3.58032263e-04 4.97449570e-01 8.67492896e-01
    7     1.59465761e+03 3.13546932e-04 4.50530815e-01 8.92760878e-01
    8     1.77743560e+03 2.81304144e-04 4.11182633e-01 9.11552984e-01
    9     1.94309592e+03 2.57321317e-04 3.78496688e-01 9.25602646e-01
    10     2.09004316e+03 2.39229510e-04 3.51684231e-01 9.36118690e-01
    11     2.21686214e+03 2.25544021e-04 3.30076422e-01 9.43954213e-01
    12     2.32233153e+03 2.15300871e-04 3.13120943e-01 9.49713259e-01
    13     2.40543559e+03 2.07862560e-04 3.00376739e-01 9.53820641e-01
    14     2.46537400e+03 2.02808986e-04 2.91508242e-01 9.56568317e-01
    15     2.50156951e+03 1.99874518e-04 2.86280050e-01 9.58145987e-01
    16     2.51367353e+03 1.98912068e-04 2.84552711e-01 9.58660396e-01
    17     2.50156951e+03 1.99874518e-04 2.86280050e-01 9.58145987e-01
    18     2.46537400e+03 2.02808986e-04 2.91508242e-01 9.56568317e-01
    19     2.40543559e+03 2.07862560e-04 3.00376739e-01 9.53820641e-01
    20     2.32233153e+03 2.15300871e-04 3.13120943e-01 9.49713259e-01
    21     2.21686214e+03 2.25544021e-04 3.30076422e-01 9.43954213e-01
    22     2.09004316e+03 2.39229510e-04 3.51684231e-01 9.36118690e-01
    23     1.94309592e+03 2.57321317e-04 3.78496688e-01 9.25602646e-01
    24     1.77743560e+03 2.81304144e-04 4.11182633e-01 9.11552984e-01
    25     1.59465761e+03 3.13546932e-04 4.50530815e-01 8.92760878e-01
    26     1.39652219e+03 3.58032263e-04 4.97449570e-01 8.67492896e-01
    27     1.18493750e+03 4.21963184e-04 5.52960477e-01 8.33207484e-01
    28     9.61941214e+02 5.19782282e-04 6.18183088e-01 7.86034141e-01
    29     7.29680909e+02 6.85231028e-04 6.94307415e-01 7.19678548e-01
    30     4.90393378e+02 1.01958962e-03 7.82550604e-01 6.22586984e-01
    31     2.46383091e+02 2.02936004e-03 8.84094302e-01 4.67308533e-01
PILE_L thermostat successfully initialized!

Total wall time: 0:01:00
